chemcompute.org
{'UTCtimestamp': '2022-10-07T21:25:42.855300', 'cluster': 'jetstream2', 'clusterJobNumber': '121640', 'status': 'RUNNING', 'nodeList': 'chemcompute-node-1'}
----- GAMESS execution script 'rungms' -----
This job is running on host chemcompute-node-1.novalocal
under operating system Linux at Fri Oct 7 21:25:46 UTC 2022
SLURM has assigned the following compute nodes to this run:
Available scratch disk space (Kbyte units) at beginning of the job is
Filesystem     1K-blocks     Used Available Use% Mounted on
/dev/sda1       62903276 11449704  51453572  19% /
GAMESS temporary binary files will be written to /scratch/121640
GAMESS supplementary output files will be written to /data/slurm/46/461750
Copying input file 461750.inp to your run's scratch directory...
The generated host list is
chemcompute-node-1.novalocal

 Distributed Data Interface kickoff program.
 Initiating 1 compute processes on 1 nodes to run the following command:
 /data/gamess-2019R1-avx2-ddi/gamess.00.x 461750 

          ******************************************************
          *         GAMESS VERSION = 30 JUN 2019 (R1)          *
          *             FROM IOWA STATE UNIVERSITY             *
          * M.W.SCHMIDT, K.K.BALDRIDGE, J.A.BOATZ, S.T.ELBERT, *
          *   M.S.GORDON, J.H.JENSEN, S.KOSEKI, N.MATSUNAGA,   *
          *          K.A.NGUYEN, S.J.SU, T.L.WINDUS,           *
          *       TOGETHER WITH M.DUPUIS, J.A.MONTGOMERY       *
          *         J.COMPUT.CHEM.  14, 1347-1363(1993)        *
          **************** 64 BIT INTEL VERSION ****************

  SINCE 1993, STUDENTS AND POSTDOCS WORKING AT IOWA STATE UNIVERSITY
  AND ALSO IN THEIR VARIOUS JOBS AFTER LEAVING ISU HAVE MADE IMPORTANT
  CONTRIBUTIONS TO THE CODE:
     IVANA ADAMOVIC, CHRISTINE AIKENS, YURI ALEXEEV, POOJA ARORA,
     ANDREY ASADCHEV, ROB BELL, PRADIPTA BANDYOPADHYAY, JONATHAN BENTZ,
     COLLEEN BERTONI, BRETT BODE, KURT BRORSEN, CALEB CARLIN, GALINA CHABAN,
     WEI CHEN, CHEOL HO CHOI, PAUL DAY, ALBERT DEFUSCO, NUWAN DESILVA,
     TIM DUDLEY, DMITRI FEDOROV, ALEX FINDLATER, GRAHAM FLETCHER, 
     MARK FREITAG, KURT GLAESEMANN, ANASTASIA GUNINA,
     DAN KEMP, GRANT MERRILL, NORIYUKI MINEZAWA, JONATHAN MULLIN,
     TAKESHI NAGATA, SEAN NEDD, HEATHER NETZLOFF, BOSILJKA NJEGIC, RYAN OLSON,
     MIKE PAK, BUU PHAM,
     SPENCER PRUITT, LUKE ROSKOP, JIM SHOEMAKER, LYUDMILA SLIPCHENKO,
     TONY SMITH, SAROM SOK LEANG, JIE SONG, TETSUYA TAKETSUGU, SIMON WEBB,
     PENG XU, SOOHAENG YOO, FEDERICO ZAHARIEV

  ADDITIONAL CODE HAS BEEN PROVIDED BY COLLABORATORS IN OTHER GROUPS:
     IOWA STATE UNIVERSITY:
          JOE IVANIC, AARON WEST, LAIMUTIS BYTAUTAS, KLAUS RUEDENBERG
     UNIVERSITY OF TOKYO: KIMIHIKO HIRAO, TAKAHITO NAKAJIMA,
          TAKAO TSUNEDA, MUNEAKI KAMIYA, SUSUMU YANAGISAWA,
          KIYOSHI YAGI, MAHITO CHIBA, SEIKEN TOKURA, NAOAKI KAWAKAMI
     UNIVERSITY OF AARHUS: FRANK JENSEN
     UNIVERSITY OF IOWA: VISVALDAS KAIRYS, HUI LI
     NATIONAL INST. OF STANDARDS AND TECHNOLOGY: WALT STEVENS, DAVID GARMER
     UNIVERSITY OF PISA: BENEDETTA MENNUCCI, JACOPO TOMASI
     UNIVERSITY OF MEMPHIS: HENRY KURTZ, PRAKASHAN KORAMBATH
     UNIVERSITY OF ALBERTA: TOBY ZENG, MARIUSZ KLOBUKOWSKI
     UNIVERSITY OF NEW ENGLAND: MARK SPACKMAN
     MIE UNIVERSITY: HIROAKI UMEDA
     NAT. INST. OF ADVANCED INDUSTRIAL SCIENCE AND TECHNOLOGY: KAZUO KITAURA
     MICHIGAN STATE UNIVERSITY:
          KAROL KOWALSKI, MARTA WLOCH, JEFFREY GOUR, JESSE LUTZ,
          WEI LI, JUN SHEN, J. EMILIANO DEUSTUA, PIOTR PIECUCH
     UNIVERSITY OF MINNESOTA:
          YINAN SHU
     UNIVERSITY OF SILESIA: MONIKA MUSIAL, STANISLAW KUCHARSKI
     FACULTES UNIVERSITAIRES NOTRE-DAME DE LA PAIX:
          OLIVIER QUINET, BENOIT CHAMPAGNE
     UNIVERSITY OF CALIFORNIA - SANTA BARBARA: BERNARD KIRTMAN
     INSTITUTE FOR MOLECULAR SCIENCE:
          KAZUYA ISHIMURA, MICHIO KATOUDA, AND SHIGERU NAGASE
     UNIVERSITY OF NOTRE DAME: ANNA POMOGAEVA, DAN CHIPMAN
     KYUSHU UNIVERSITY:
          HARUYUKI NAKANO,
          FENG LONG GU, JACEK KORCHOWIEC, MARCIN MAKOWSKI, AND YURIKO AOKI,
          HIROTOSHI MORI AND EISAKU MIYOSHI
     PENNSYLVANIA STATE UNIVERSITY:
          TZVETELIN IORDANOV, CHET SWALINA, JONATHAN SKONE,
          SHARON HAMMES-SCHIFFER
     WASEDA UNIVERSITY:
          MASATO KOBAYASHI, TOMOKO AKAMA, TSUGUKI TOUMA,
          TAKESHI YOSHIKAWA, YASUHIRO IKABATA, JUNJI SEINO,
          YUYA NAKAJIMA, HIROMI NAKAI
     NANJING UNIVERSITY: SHUHUA LI
     UNIVERSITY OF NEBRASKA:
          PEIFENG SU, DEJUN SI, NANDUN THELLAMUREGE, YALI WANG, HUI LI
     UNIVERSITY OF ZURICH: ROBERTO PEVERATI, KIM BALDRIDGE
     N. COPERNICUS UNIVERSITY AND JACKSON STATE UNIVERSITY:
          MARIA BARYSZ
     UNIVERSITY OF COPENHAGEN: Jimmy Kromann, CASPER STEINMANN
     TOKYO INSTITUTE OF TECHNOLOGY: HIROYA NAKATA
     NAGOYA UNIVERSITY: YOSHIO NISHIMOTO, STEPHAN IRLE
     MOSCOW STATE UNIVERSITY: VLADIMIR MIRONOV
     A.N.NESMEYANOV INSTITUTE OF ORGANOELEMENT COMPOUNDS OF RUSSIAN ACADEMY OF SCIENCES:
          IGOR S. GERASIMOV

 EXECUTION OF GAMESS BEGUN Fri Oct  7 21:25:46 2022

            ECHO OF THE FIRST FEW INPUT CARDS -
 INPUT CARD>!                                                                               
 INPUT CARD>!   GAMESS Calculation input file                                               
 INPUT CARD>!                                                                               
 INPUT CARD>!                                                                               
 INPUT CARD> $CONTRL SCFTYP=RHF MAXIT=200 RUNTYP=OPTIMIZE                                   
 INPUT CARD>         COORD=UNIQUE MULT=1                                                    
 INPUT CARD>         ICHARG=0                                                               
 INPUT CARD>         DFTTYP=B3LYP                                                           
 INPUT CARD>         MOLPLT=.FALSE. PLTORB=.FALSE.  $END                                    
 INPUT CARD> $SYSTEM TIMLIM=2879 MWORDS=250  $END                                           
 INPUT CARD>                                                                                
 INPUT CARD> $FORCE METHOD=SEMINUM NVIB=2 $END                                              
 INPUT CARD> $STATPT OPTTOL=0.0005 NSTEP=999 $END                                           
 INPUT CARD> $STATPT IHREP=0 HSSEND=.TRUE.  $END                                            
 INPUT CARD>                                                                                
 INPUT CARD> $DFT    METHOD=GRID  NLEB=590  $END                                            
 INPUT CARD>                                                                                
 INPUT CARD> $BASIS  GBASIS=N21 NGAUSS=3 $END                                               
 INPUT CARD>                                                                                
 INPUT CARD> $SCF    DIRSCF=.T. $END                                                        
 INPUT CARD> $GUESS  GUESS=HUCKEL  $END                                                     
 INPUT CARD>                                                                                
 INPUT CARD> $DATA                                                                          
 INPUT CARD>                                                                                
 INPUT CARD>  C1                                                                            
 INPUT CARD>C     6.0    -1.29068    -0.65546     0.26240                                   
 INPUT CARD>C     6.0    -0.01221     0.09996    -0.00506                                   
 INPUT CARD>O     8.0     1.10709    -0.63903    -0.18650                                   
 INPUT CARD>N     7.0     0.05771     1.38305    -0.05237                                   
 INPUT CARD>H     1.0    -2.06320    -0.32170    -0.43623                                   
 INPUT CARD>H     1.0    -1.61671    -0.46009     1.28791                                   
 INPUT CARD>H     1.0    -1.14746    -1.73277     0.13510                                   
 INPUT CARD>H     1.0     0.93696    -1.59356    -0.12303                                   
 INPUT CARD>H     1.0     1.03145     1.64780    -0.24026                                   
 INPUT CARD> $END                                                                           
 INPUT CARD>                                                                                
 INPUT CARD>                                                                                
 INPUT CARD>! Customizations after this line are persisted when using Do More Calculations  
  250000000 WORDS OF MEMORY AVAILABLE

     BASIS OPTIONS
     -------------
     GBASIS=N21          IGAUSS=       3      POLAR=NONE    
     NDFUNC=       0     NFFUNC=       0     DIFFSP=       F
     NPFUNC=       0      DIFFS=       F     BASNAM=        


     RUN TITLE
     ---------
                                                                                 

 THE POINT GROUP OF THE MOLECULE IS C1      
 THE ORDER OF THE PRINCIPAL AXIS IS     0

 ATOM      ATOMIC                      COORDINATES (BOHR)
           CHARGE         X                   Y                   Z
 C           6.0    -2.4390315378       -1.2386397959        0.4958640992
 C           6.0    -0.0230735543        0.1888970097       -0.0095620135
 O           8.0     2.0920967437       -1.2075915979       -0.3524338967
 N           7.0     0.1090560868        2.6135855273       -0.0989649500
 H           1.0    -3.8988826579       -0.6079248503       -0.8243551676
 H           1.0    -3.0551389016       -0.8694440297        2.4337969968
 H           1.0    -2.1683849819       -3.2744604997        0.2553019809
 H           1.0     1.7705976615       -3.0113917450       -0.2324929883
 H           1.0     1.9491578700        3.1138904826       -0.4540255658

          INTERNUCLEAR DISTANCES (ANGS.)
          ------------------------------

                1 C          2 C          3 O          4 N          5 H     

   1 C       0.0000000    1.5088670 *  2.4394840 *  2.4642968 *  1.0937398 *
   2 C       1.5088670 *  0.0000000    1.3534619 *  1.2858643 *  2.1378177 *
   3 O       2.4394840 *  1.3534619 *  0.0000000    2.2821036 *  3.1959040  
   4 N       2.4642968 *  1.2858643 *  2.2821036 *  0.0000000    2.7480503 *
   5 H       1.0937398 *  2.1378177 *  3.1959040    2.7480503 *  0.0000000  
   6 H       1.0936799 *  2.1353800 *  3.1024169    2.8279317 *  1.7863829 *
   7 H       1.0942185 *  2.1604020 *  2.5263985 *  3.3460296    1.7765462 *
   8 H       2.4476454 *  1.9449552 *  0.9716482 *  3.1045580    3.2736344  
   9 H       3.3090726    1.8815828 *  2.2887121 *  1.0264330 *  3.6734443  

                6 H          7 H          8 H          9 H     

   1 C       1.0936799 *  1.0942185 *  2.4476454 *  3.3090726  
   2 C       2.1353800 *  2.1604020 *  1.9449552 *  1.8815828 *
   3 O       3.1024169    2.5263985 *  0.9716482 *  2.2887121 *
   4 N       2.8279317 *  3.3460296    3.1045580    1.0264330 *
   5 H       1.7863829 *  1.7765462 *  3.2736344    3.6734443  
   6 H       0.0000000    1.7801351 *  3.1299739    3.7136579  
   7 H       1.7801351 *  0.0000000    2.1049507 *  4.0394056  
   8 H       3.1299739    2.1049507 *  0.0000000    3.2448553  
   9 H       3.7136579    4.0394056    3.2448553    0.0000000  

  * ... LESS THAN  3.000


     ATOMIC BASIS SET
     ----------------
 THE CONTRACTED PRIMITIVE FUNCTIONS HAVE BEEN UNNORMALIZED
 THE CONTRACTED BASIS FUNCTIONS ARE NOW NORMALIZED TO UNITY

  SHELL TYPE  PRIMITIVE        EXPONENT          CONTRACTION COEFFICIENT(S)

 C         

      1   S       1           172.2560000    0.061766907377
      1   S       2            25.9109000    0.358794042852
      1   S       3             5.5333500    0.700713083689

      2   L       4             3.6649800   -0.395895162119    0.236459946619
      2   L       5             0.7705450    1.215834355681    0.860618805716

      3   L       6             0.1958570    1.000000000000    1.000000000000

 C         

      4   S       7           172.2560000    0.061766907377
      4   S       8            25.9109000    0.358794042852
      4   S       9             5.5333500    0.700713083689

      5   L      10             3.6649800   -0.395895162119    0.236459946619
      5   L      11             0.7705450    1.215834355681    0.860618805716

      6   L      12             0.1958570    1.000000000000    1.000000000000

 O         

      7   S      13           322.0370000    0.059239393389
      7   S      14            48.4308000    0.351499960776
      7   S      15            10.4206000    0.707657921031

      8   L      16             7.4029400   -0.404453583190    0.244586106967
      8   L      17             1.5762000    1.221561761397    0.853955373466

      9   L      18             0.3736840    1.000000000000    1.000000000000

 N         

     10   S      19           242.7660000    0.059865700508
     10   S      20            36.4851000    0.352955002994
     10   S      21             7.8144900    0.706513005993

     11   L      22             5.4252200   -0.413300077430    0.237972016222
     11   L      23             1.1491500    1.224417266851    0.858953058551

     12   L      24             0.2832050    1.000000000000    1.000000000000

 H         

     13   S      25             5.4471780    0.156284978695
     13   S      26             0.8245472    0.904690876670

     14   S      27             0.1831916    1.000000000000

 H         

     15   S      28             5.4471780    0.156284978695
     15   S      29             0.8245472    0.904690876670

     16   S      30             0.1831916    1.000000000000

 H         

     17   S      31             5.4471780    0.156284978695
     17   S      32             0.8245472    0.904690876670

     18   S      33             0.1831916    1.000000000000

 H         

     19   S      34             5.4471780    0.156284978695
     19   S      35             0.8245472    0.904690876670

     20   S      36             0.1831916    1.000000000000

 H         

     21   S      37             5.4471780    0.156284978695
     21   S      38             0.8245472    0.904690876670

     22   S      39             0.1831916    1.000000000000

 TOTAL NUMBER OF BASIS SET SHELLS             =   22
 NUMBER OF CARTESIAN GAUSSIAN BASIS FUNCTIONS =   46
 NUMBER OF ELECTRONS                          =   32
 CHARGE OF MOLECULE                           =    0
 SPIN MULTIPLICITY                            =    1
 NUMBER OF OCCUPIED ORBITALS (ALPHA)          =   16
 NUMBER OF OCCUPIED ORBITALS (BETA )          =   16
 TOTAL NUMBER OF ATOMS                        =    9
 THE NUCLEAR REPULSION ENERGY IS      121.0122696257

 SELECTED MURRAY-HANDY-LAMING RADIAL GRID

 LEGACY BECKE'S FUZZY CELL METHOD

 SELECTED ORIGINAL BECKE'S PARTITION FUNCTION

     LEBEDEV GRID-BASED DFT OPTIONS
     ------------------------------
     DFTTYP=B3LYP   
     NRAD  =      96     NLEB  =     590
     NRAD0 =      24     NLEB0 =     110
     SWOFF =    5.00E-03 (PURE SCF -> DFT)
     SWITCH=    3.00E-04 (COARSE -> TIGHT GRID)
     THRESH=    0.00E+00 GTHRE=    1.00E+00

 GRIMME'S EMPIRICAL DISPERSION CORRECTION= F

     $CONTRL OPTIONS
     ---------------
 SCFTYP=RHF          RUNTYP=OPTIMIZE     EXETYP=RUN     
 MPLEVL=       0     CITYP =NONE         CCTYP =NONE         VBTYP =NONE    
 DFTTYP=B3LYP        TDDFT =NONE    
 MULT  =       1     ICHARG=       0     NZVAR =       0     COORD =UNIQUE  
 PP    =NONE         RELWFN=NONE         LOCAL =NONE         NUMGRD=       F
 ISPHER=      -1     NOSYM =       0     MAXIT =     200     UNITS =ANGS    
 PLTORB=       F     MOLPLT=       F     AIMPAC=       F     FRIEND=        
 NPRINT=       7     IREST =       0     GEOM  =INPUT   
 NORMF =       0     NORMP =       0     ITOL  =      20     ICUT  =       9
 INTTYP=BEST         GRDTYP=BEST         QMTTOL= 1.0E-06

     $SYSTEM OPTIONS
     ---------------
  REPLICATED MEMORY=   250000000 WORDS (ON EVERY NODE).
 DISTRIBUTED MEMDDI=           0 MILLION WORDS IN AGGREGATE,
 MEMDDI DISTRIBUTED OVER   1 PROCESSORS IS           0 WORDS/PROCESSOR.
 TOTAL MEMORY REQUESTED ON EACH PROCESSOR=   250000000 WORDS.
 TIMLIM=        2879.00 MINUTES, OR       2.0 DAYS.
 PARALL= F  BALTYP=  DLB     KDIAG=    0  COREFL= F
 MXSEQ2=     300 MXSEQ3=     150  mem10=         0

          ----------------
          PROPERTIES INPUT
          ----------------

     MOMENTS            FIELD           POTENTIAL          DENSITY
 IEMOM =       1   IEFLD =       0   IEPOT =       0   IEDEN =       0
 WHERE =COMASS     WHERE =NUCLEI     WHERE =NUCLEI     WHERE =NUCLEI  
 OUTPUT=BOTH       OUTPUT=BOTH       OUTPUT=BOTH       OUTPUT=BOTH    
 IEMINT=       0   IEFINT=       0                     IEDINT=       0
                                                       MORB  =       0
          EXTRAPOLATION IN EFFECT
          DIIS IN EFFECT
 ORBITAL PRINTING OPTION: NPREO=     1    46     2     1

     -------------------------------
     INTEGRAL TRANSFORMATION OPTIONS
     -------------------------------
     NWORD  =            0
     CUTOFF = 1.0E-09     MPTRAN =       0
     DIRTRF =       T     AOINTS =DUP     

          ----------------------
          INTEGRAL INPUT OPTIONS
          ----------------------
 NOPK  =       1 NORDER=       0 SCHWRZ=       T

     ------------------------------------------
     THE POINT GROUP IS C1 , NAXIS= 0, ORDER= 1
     ------------------------------------------

     DIMENSIONS OF THE SYMMETRY SUBSPACES ARE
 A   =   46

 ..... DONE SETTING UP THE RUN .....
 STEP CPU TIME =     0.01 TOTAL CPU TIME =          0.0 (      0.0 MIN)
 TOTAL WALL CLOCK TIME=          0.0 SECONDS, CPU UTILIZATION IS    33.33%


          -----------------------------
          STATIONARY POINT LOCATION RUN
          -----------------------------

 OBTAINING INITIAL HESSIAN, HESS=GUESS   
 CARTESIAN COORDINATE OPTIMIZATION USING BADGER'S RULE FORCE CONSTANT GUESS

          PARAMETERS CONTROLLING GEOMETRY SEARCH ARE
          METHOD =QA                  UPHESS =BFGS    
          NNEG   =         0          NFRZ   =         0
          NSTEP  =       999          IFOLOW =         1
          HESS   =GUESS               RESTAR =         F
          IHREP  =         0          HSSEND =         T
          NPRT   =         0          NPUN   =         0
          OPTTOL = 5.000E-04          RMIN   = 1.500E-03
          RMAX   = 1.000E-01          RLIM   = 7.000E-02
          DXMAX  = 3.000E-01          PURIFY =         F
          MOVIE  =         F          TRUPD  =         T
          TRMAX  = 5.000E-01          TRMIN  = 5.000E-02
          ITBMAT =         5          STPT   =         F
          STSTEP = 1.000E-02          PROJCT=          T

 BEGINNING GEOMETRY SEARCH POINT NSERCH=   0 ...

 COORDINATES OF ALL ATOMS ARE (ANGS)
   ATOM   CHARGE       X              Y              Z
 ------------------------------------------------------------
 C           6.0  -1.2906800000  -0.6554600000   0.2624000000
 C           6.0  -0.0122100000   0.0999600000  -0.0050600000
 O           8.0   1.1070900000  -0.6390300000  -0.1865000000
 N           7.0   0.0577100000   1.3830500000  -0.0523700000
 H           1.0  -2.0632000000  -0.3217000000  -0.4362300000
 H           1.0  -1.6167100000  -0.4600900000   1.2879100000
 H           1.0  -1.1474600000  -1.7327700000   0.1351000000
 H           1.0   0.9369600000  -1.5935600000  -0.1230300000
 H           1.0   1.0314500000   1.6478000000  -0.2402600000

          ********************
          1 ELECTRON INTEGRALS
          ********************
 ...... END OF ONE-ELECTRON INTEGRALS ......
 STEP CPU TIME =     0.01 TOTAL CPU TIME =          0.0 (      0.0 MIN)
 TOTAL WALL CLOCK TIME=          0.0 SECONDS, CPU UTILIZATION IS    50.00%

          -------------
          GUESS OPTIONS
          -------------
          GUESS =HUCKEL            NORB  =       0          NORDER=       0
          MIX   =       F          PRTMO =       F          PUNMO =       F
          TOLZ  = 1.0E-08          TOLE  = 1.0E-05
          SYMDEN=       F          PURIFY=       F

 INITIAL GUESS ORBITALS GENERATED BY HUCKEL   ROUTINE.
 HUCKEL GUESS REQUIRES     24478 WORDS.

 SYMMETRIES FOR INITIAL GUESS ORBITALS FOLLOW.   BOTH SET(S).
    16 ORBITALS ARE OCCUPIED (    4 CORE ORBITALS).
     5=A        6=A        7=A        8=A        9=A       10=A       11=A   
    12=A       13=A       14=A       15=A       16=A       17=A       18=A   
    19=A       20=A       21=A       22=A       23=A       24=A       25=A   
    26=A   
 ...... END OF INITIAL ORBITAL SELECTION ......
 STEP CPU TIME =     0.01 TOTAL CPU TIME =          0.0 (      0.0 MIN)
 TOTAL WALL CLOCK TIME=          0.1 SECONDS, CPU UTILIZATION IS    50.00%

                    ----------------------
                    AO INTEGRAL TECHNOLOGY
                    ----------------------
     S,P,L SHELL ROTATED AXIS INTEGRALS, REPROGRAMMED BY
        KAZUYA ISHIMURA (IMS) AND JOSE SIERRA (SYNSTAR).
     S,P,D,L SHELL ROTATED AXIS INTEGRALS PROGRAMMED BY
        KAZUYA ISHIMURA (INSTITUTE FOR MOLECULAR SCIENCE).
     S,P,D,F,G SHELL TO TOTAL QUARTET ANGULAR MOMENTUM SUM 5,
        ERIC PROGRAM BY GRAHAM FLETCHER (ELORET AND NASA ADVANCED
        SUPERCOMPUTING DIVISION, AMES RESEARCH CENTER).
     S,P,D,F,G,L SHELL GENERAL RYS QUADRATURE PROGRAMMED BY
        MICHEL DUPUIS (PACIFIC NORTHWEST NATIONAL LABORATORY).

          --------------------
          2 ELECTRON INTEGRALS
          --------------------

 DIRECT SCF METHOD SKIPS INTEGRAL STORAGE ON DISK.
 DIRECT TRANSFORMATION SKIPS AO INTEGRAL STORAGE ON DISK.
  ...... END OF TWO-ELECTRON INTEGRALS .....
 STEP CPU TIME =     0.00 TOTAL CPU TIME =          0.0 (      0.0 MIN)
 TOTAL WALL CLOCK TIME=          0.1 SECONDS, CPU UTILIZATION IS    42.86%

          --------------------------
             R-B3LYP SCF CALCULATION
          --------------------------

     NUCLEAR ENERGY =       121.0122696257
     MAXIT =  200     NPUNCH=    2
     EXTRAP=T  DAMP=F  SHIFT=F  RSTRCT=F  DIIS=T  DEM=F  SOSCF=F
         DENSITY MATRIX CONVERGENCE THRESHOLD=  2.00E-05
     COARSE -> FINE DFT GRID SWITCH THRESHOLD=  3.00E-04 (SWITCH IN $DFT)
                   HF -> DFT SWITCH THRESHOLD=  5.00E-03 (SWOFF IN $DFT)
     MEMORY REQUIRED FOR RHF ITERS=    658753 WORDS.

 DIRECT SCF CALCULATION, SCHWRZ=T   FDIFF=T,  DIRTHR=  0.00E+00 NITDIR=10
 SCHWARZ INEQUALITY OVERHEAD:      1078 INTEGRALS, T=        0.00

 DFT CODE IS SWITCHING FROM THE FINE GRID NRAD= 96,  NLEB=  590
                      TO THE COARSE GRID NRAD0= 24, NLEB0=  110

     EXCHANGE FUNCTIONAL   =B88&HFX   
     CORRELATION FUNCTIONAL=LYP88&VWN5
     DFT THRESHOLD         =.785E-08
     GRID CHANGE THRESHOLD =.300E-03
 FOR AN EULER-MACLAURIN QUADRATURE USING  96 RADIAL POINTS:
 SMALLEST GAUSSIAN PRIMITIVE EXPONENT=        0.1831915800 OF TYPE -S-
 ON ATOM NUMBER   5 HAS RADIAL NORMALIZATION=  1.000000
  LARGEST GAUSSIAN PRIMITIVE EXPONENT=      322.0370000000 OF TYPE -S-
 ON ATOM NUMBER   3 HAS RADIAL NORMALIZATION=  1.000000
 DFT IS SWITCHED OFF, PERFORMING PURE SCF UNTIL SWOFF THRESHOLD IS REACHED.

                                                                                   NONZERO     BLOCKS
 ITER EX DEM     TOTAL ENERGY        E CHANGE  DENSITY CHANGE    DIIS ERROR      INTEGRALS    SKIPPED
   1  0  0     -206.1628164175  -206.1628164175   0.712524931   0.593998900         538470       4889
          * * *   INITIATING DIIS PROCEDURE   * * *
   2  1  0     -206.6938913764    -0.5310749589   0.200506288   0.163742662         537950       5249
   3  2  0     -206.7398011786    -0.0459098022   0.065691664   0.121105811         536508       5707
   4  3  0     -206.7718142309    -0.0320130523   0.038358942   0.012651376         533854       6206
   5  4  0     -206.7726967349    -0.0008825040   0.005597630   0.002683954         529480       6784
   6  5  0     -206.7727471024    -0.0000503674   0.002132519   0.001866298         522061       7550
 CONVERGED TO SWOFF, SO DFT CALCULATION IS NOW SWITCHED ON.
          * * *   INITIATING DIIS PROCEDURE   * * *
   7  6  0     -207.8770719630    -1.1043248606   0.078770296   0.073433015         538636       4785
   8  7  0     -207.8923613852    -0.0152894222   0.061963101   0.030727078         536118       5856
   9  8  0     -207.8937538987    -0.0013925135   0.028492251   0.037839271         533457       6211
  10  9  0     -207.8967398839    -0.0029859852   0.008357916   0.012388502         530826       6607
  11 10  0     -207.8970312406    -0.0002913567   0.001628397   0.003804276         525091       7266
  12 11  0     -207.8970493070    -0.0000180664   0.000379589   0.000644253         517198       7968
  13 12  0     -207.8970500504    -0.0000007434   0.000074156   0.000068468         508398       8751
 DFT CODE IS SWITCHING BACK TO THE FINE GRID
          * * *   INITIATING DIIS PROCEDURE   * * *
  14 13  0     -207.8986903546    -0.0016403042   0.001855901   0.001459136         538677       4752
  15 14  0     -207.8986989638    -0.0000086092   0.000900960   0.000998639         517652       7923
  16 15  0     -207.8986992552    -0.0000002914   0.000392101   0.000928218         513413       8370
  17 16  0     -207.8987006153    -0.0000013601   0.000147395   0.000200650         508951       8764
  18 17  0     -207.8987006917    -0.0000000764   0.000039836   0.000076738         497538       9751
  19 18  0     -207.8987007020    -0.0000000103   0.000010094   0.000011627         488042      10515
  20 19  0     -207.8987007024    -0.0000000004   0.000001339   0.000001398         472146      11719

          -----------------
          DENSITY CONVERGED
          -----------------
     TIME TO FORM FOCK OPERATORS=       5.9 SECONDS (       0.3 SEC/ITER)
     FOCK TIME ON FIRST ITERATION=       0.0, LAST ITERATION=       0.8
     TIME TO SOLVE SCF EQUATIONS=       0.1 SECONDS (       0.0 SEC/ITER)

 FINAL R-B3LYP ENERGY IS     -207.8987007024 AFTER  20 ITERATIONS
 DFT EXCHANGE + CORRELATION ENERGY =       -22.6510008589
 TOTAL ELECTRON NUMBER             =        31.9999997985

          ------------
          EIGENVECTORS
          ------------

                      1          2          3          4          5
                  -19.0642   -14.1999   -10.2116   -10.1324    -1.0757
                     A          A          A          A          A   
    1  C  1  S    0.000055  -0.000184  -0.006441   0.986323  -0.018093
    2  C  1  S    0.000015  -0.001241  -0.003946   0.112595   0.015877
    3  C  1  X   -0.000125  -0.000062  -0.000908   0.000013   0.019442
    4  C  1  Y   -0.000408  -0.000065  -0.000345  -0.000176   0.005096
    5  C  1  Z    0.000012  -0.000038   0.000249   0.000003  -0.003896
    6  C  1  S    0.000729   0.009584   0.025834  -0.095323   0.023813
    7  C  1  X   -0.003547   0.006692   0.014863  -0.006726   0.009211
    8  C  1  Y    0.006371  -0.003757   0.008355  -0.002844  -0.020472
    9  C  1  Z    0.000551  -0.000921  -0.003439   0.001457  -0.000120
   10  C  2  S   -0.000414   0.000075   0.985235   0.005828  -0.095155
   11  C  2  S   -0.000766  -0.000753   0.104157  -0.002378   0.107576
   12  C  2  X    0.001338  -0.000015  -0.000351   0.000584   0.081484
   13  C  2  Y   -0.000847  -0.000105  -0.000832   0.000456  -0.044993
   14  C  2  Z   -0.000222   0.000005   0.000131  -0.000103  -0.013203
   15  C  2  S    0.014982   0.029364  -0.057437   0.022806   0.094720
   16  C  2  X    0.016802   0.008002   0.019985  -0.013892  -0.039349
   17  C  2  Y   -0.013788   0.034163   0.009627  -0.011756   0.001486
   18  C  2  Z   -0.002642  -0.002468  -0.004107   0.002882   0.007132
   19  O  3  S    0.982635   0.000043   0.000236   0.000023  -0.213769
   20  O  3  S    0.106613   0.000114   0.001432  -0.000116   0.198023
   21  O  3  X   -0.003791   0.000770   0.000016   0.000174  -0.102406
   22  O  3  Y   -0.000439   0.000568   0.000658  -0.000260  -0.022652
   23  O  3  Z    0.000707  -0.000151  -0.000033  -0.000049   0.019685
   24  O  3  S   -0.056805  -0.000948  -0.000585  -0.000849   0.666415
   25  O  3  X    0.012243  -0.002934   0.001122   0.001225  -0.116818
   26  O  3  Y   -0.002217  -0.005382  -0.004926   0.001469  -0.007312
   27  O  3  Z   -0.002164   0.000677  -0.000009  -0.000190   0.021818
   28  N  4  S    0.000024   0.985095   0.000441  -0.000042  -0.033855
   29  N  4  S    0.000049   0.110787   0.000269  -0.000835   0.029149
   30  N  4  X    0.000731   0.002811   0.000990   0.000471   0.011977
   31  N  4  Y    0.000231  -0.004394   0.002031   0.000640  -0.033357
   32  N  4  Z   -0.000130  -0.000410  -0.000246  -0.000129  -0.001257
   33  N  4  S    0.002215  -0.080892   0.000142   0.002724   0.087021
   34  N  4  X   -0.006298  -0.006839  -0.006760   0.000107   0.028960
   35  N  4  Y   -0.000948   0.022745   0.000818  -0.002175  -0.029091
   36  N  4  Z    0.001141   0.000702   0.001279   0.000116  -0.004452
   37  H  5  S   -0.000549   0.000228  -0.001750  -0.000069   0.005786
   38  H  5  S   -0.001184   0.000727   0.002538   0.015992  -0.000595
   39  H  6  S   -0.000230   0.000111  -0.001791  -0.000056   0.005285
   40  H  6  S   -0.001055  -0.000122   0.002995   0.015988  -0.002543
   41  H  7  S    0.001164  -0.001356  -0.001422   0.000049   0.005154
   42  H  7  S    0.001581  -0.001514   0.001221   0.016496  -0.005497
   43  H  8  S    0.003252  -0.001610  -0.001177   0.000164   0.102786
   44  H  8  S    0.004706   0.001862   0.001389   0.000007   0.018326
   45  H  9  S    0.001187   0.003248   0.001370  -0.000020   0.010539
   46  H  9  S    0.001256   0.006870   0.002616   0.002247   0.001888

                      6          7          8          9         10
                   -0.8802    -0.7430    -0.5943    -0.5238    -0.4620
                     A          A          A          A          A   
    1  C  1  S   -0.032358  -0.196883   0.035574   0.052702  -0.019520
    2  C  1  S    0.034271   0.191158  -0.029684  -0.041978   0.014882
    3  C  1  X    0.016251   0.031999   0.067699   0.142186  -0.239348
    4  C  1  Y    0.023473   0.009112   0.020223   0.153481   0.102016
    5  C  1  Z   -0.003673  -0.005941  -0.012598  -0.031743   0.053838
    6  C  1  S    0.045411   0.561066  -0.148073  -0.250540   0.135122
    7  C  1  X   -0.027856   0.018961   0.013244   0.052554  -0.156820
    8  C  1  Y    0.020976  -0.007094  -0.012460   0.078523   0.081362
    9  C  1  Z    0.004615  -0.002151  -0.003030  -0.011678   0.030534
   10  C  2  S   -0.114418  -0.051096  -0.098557  -0.088786   0.021348
   11  C  2  S    0.131417   0.060839   0.114453   0.103943  -0.018707
   12  C  2  X   -0.013188  -0.130306   0.140165  -0.198456   0.064435
   13  C  2  Y    0.175613  -0.108978  -0.123404   0.090779   0.223995
   14  C  2  Z   -0.002105   0.028033  -0.021806   0.034993  -0.012559
   15  C  2  S    0.154380   0.098242   0.306049   0.292781  -0.033782
   16  C  2  X   -0.024628  -0.037039   0.017312  -0.161589   0.098581
   17  C  2  Y   -0.054419  -0.026698  -0.049203  -0.012233   0.212261
   18  C  2  Z    0.006573   0.008126  -0.000808   0.031245  -0.018556
   19  O  3  S    0.069070   0.034169   0.019557   0.022649  -0.065189
   20  O  3  S   -0.066049  -0.033711  -0.020571  -0.024084   0.060553
   21  O  3  X    0.005358  -0.025726  -0.160445   0.006807   0.178736
   22  O  3  Y    0.071996  -0.005845   0.330050  -0.161197   0.115245
   23  O  3  Z   -0.003237   0.005006   0.018507   0.004750  -0.031399
   24  O  3  S   -0.238777  -0.121447  -0.067272  -0.087977   0.270043
   25  O  3  X    0.024202  -0.020844  -0.138427   0.003838   0.173025
   26  O  3  Y    0.066633  -0.005012   0.281282  -0.136591   0.093362
   27  O  3  Z   -0.006579   0.003870   0.015944   0.004367  -0.029687
   28  N  4  S   -0.184760   0.056887   0.077865   0.019635   0.030846
   29  N  4  S    0.170189  -0.054194  -0.073099  -0.015545  -0.013220
   30  N  4  X    0.051514  -0.057759  -0.031779  -0.196433  -0.101258
   31  N  4  Y   -0.129665   0.008138  -0.042274  -0.161194  -0.150788
   32  N  4  Z   -0.005882   0.010651   0.007190   0.040934   0.025158
   33  N  4  S    0.562300  -0.176973  -0.276096  -0.075950  -0.204061
   34  N  4  X    0.059606  -0.037756  -0.015427  -0.127472  -0.085705
   35  N  4  Y   -0.119084   0.018579  -0.012048  -0.095388  -0.064727
   36  N  4  Z   -0.007901   0.006323   0.003062   0.026106   0.019178
   37  H  5  S    0.014245   0.102707  -0.038122  -0.056602   0.120619
   38  H  5  S   -0.008036   0.005900  -0.022001  -0.033417   0.088038
   39  H  6  S    0.014137   0.104049  -0.035850  -0.063573   0.105274
   40  H  6  S   -0.006510   0.005095  -0.019960  -0.039450   0.082155
   41  H  7  S    0.012213   0.109336  -0.035072  -0.111084  -0.078273
   42  H  7  S    0.000664   0.009966  -0.030613  -0.071207  -0.089950
   43  H  8  S   -0.062385  -0.011583  -0.208915   0.088671  -0.062437
   44  H  8  S   -0.031848  -0.003200  -0.151413   0.059345  -0.042257
   45  H  9  S    0.089430  -0.056611  -0.075869  -0.169843  -0.116490
   46  H  9  S    0.008457  -0.024645  -0.045417  -0.126784  -0.095893

                     11         12         13         14         15
                   -0.4485    -0.4063    -0.3706    -0.3393    -0.2432
                     A          A          A          A          A   
    1  C  1  S    0.000322  -0.009729  -0.000107  -0.025188   0.004441
    2  C  1  S   -0.000401   0.012137  -0.000200   0.020140  -0.001766
    3  C  1  X    0.067741  -0.030133  -0.044887   0.238023  -0.024368
    4  C  1  Y    0.013705   0.332094  -0.002983   0.011072  -0.014491
    5  C  1  Z    0.310428  -0.010572  -0.217158  -0.049105  -0.048641
    6  C  1  S   -0.001782   0.033416   0.001241   0.192820  -0.048156
    7  C  1  X    0.054771  -0.037883  -0.038139   0.208349  -0.042953
    8  C  1  Y    0.004190   0.235792  -0.007301   0.027441  -0.001347
    9  C  1  Z    0.243760  -0.008386  -0.188459  -0.049066  -0.069070
   10  C  2  S    0.000175   0.005776   0.000332   0.005885   0.010457
   11  C  2  S   -0.000958  -0.014525  -0.000381  -0.013892  -0.015341
   12  C  2  X    0.034821  -0.088984   0.036234  -0.212314   0.038160
   13  C  2  Y   -0.005531  -0.204033   0.004095  -0.068632  -0.016332
   14  C  2  Z    0.210899   0.014500   0.188539   0.042361   0.199953
   15  C  2  S    0.001560   0.006493  -0.000894   0.036806  -0.018620
   16  C  2  X    0.027674  -0.070567   0.038379  -0.010571   0.000784
   17  C  2  Y    0.000005  -0.096000   0.007202   0.065770  -0.001647
   18  C  2  Z    0.177614   0.009489   0.218583   0.002404   0.196649
   19  O  3  S    0.001757  -0.002231   0.000446  -0.064548  -0.008459
   20  O  3  S   -0.001702  -0.000617  -0.000532   0.059579   0.005496
   21  O  3  X    0.024894  -0.054877   0.061779   0.371090  -0.075253
   22  O  3  Y    0.000556  -0.001519   0.012577   0.149006   0.011282
   23  O  3  Z    0.167696   0.003044   0.356676  -0.070388  -0.302334
   24  O  3  S   -0.006442   0.028173  -0.001093   0.264692   0.056517
   25  O  3  X    0.025587  -0.054062   0.065639   0.412853  -0.097379
   26  O  3  Y    0.000985   0.000813   0.014240   0.134742   0.012149
   27  O  3  Z    0.169825   0.002679   0.382896  -0.077737  -0.368032
   28  N  4  S   -0.001131  -0.004811   0.000030   0.007705  -0.026121
   29  N  4  S    0.000888   0.000079  -0.000058   0.002729   0.020991
   30  N  4  X    0.024105   0.096494   0.021494   0.006380  -0.016812
   31  N  4  Y    0.012309   0.200370   0.004372   0.096623   0.070220
   32  N  4  Z    0.092796  -0.027614   0.114811  -0.002390   0.363176
   33  N  4  S    0.004411   0.022038  -0.000654  -0.122130   0.118332
   34  N  4  X    0.019685   0.073755   0.017564  -0.014647  -0.008815
   35  N  4  Y    0.009430   0.151434   0.003661   0.109589   0.077030
   36  N  4  Z    0.072464  -0.021935   0.092547   0.000995   0.407524
   37  H  5  S   -0.156755   0.101955   0.129106  -0.084458   0.041514
   38  H  5  S   -0.117401   0.083366   0.127283  -0.107566   0.025315
   39  H  6  S    0.177891   0.052195  -0.146850  -0.069476  -0.048702
   40  H  6  S    0.138767   0.040903  -0.142930  -0.087379  -0.030933
   41  H  7  S   -0.028179  -0.240555   0.017875   0.040456   0.013405
   42  H  7  S   -0.028764  -0.250740   0.011777  -0.001622   0.038018
   43  H  8  S    0.002148  -0.014323  -0.000113  -0.115021  -0.015922
   44  H  8  S    0.000325  -0.039443   0.001397  -0.074824  -0.021686
   45  H  9  S    0.007461   0.126870   0.000429   0.047553  -0.029819
   46  H  9  S    0.005983   0.131063   0.000512   0.098065  -0.024495

                     16         17         18         19         20
                   -0.2416     0.0421     0.0776     0.1450     0.1576
                     A          A          A          A          A   
    1  C  1  S    0.017051   0.001360   0.070480  -0.002853  -0.155280
    2  C  1  S   -0.008650  -0.000413  -0.042515   0.006463   0.071274
    3  C  1  X   -0.050277   0.009704   0.012745  -0.131672  -0.117991
    4  C  1  Y   -0.061965   0.007911   0.140563   0.163632   0.064960
    5  C  1  Z    0.026847   0.030100   0.003756   0.031589   0.056719
    6  C  1  S   -0.176111  -0.015438  -0.766574  -0.007115   2.079856
    7  C  1  X   -0.071213   0.076359   0.210871  -0.568438  -0.300051
    8  C  1  Y   -0.067283   0.021802   0.433599   0.673523   0.232109
    9  C  1  Z    0.046410   0.283137  -0.017924   0.126350   0.189522
   10  C  2  S    0.040251   0.001761  -0.003988   0.017759   0.025089
   11  C  2  S   -0.059831   0.000233  -0.002068  -0.000577   0.020900
   12  C  2  X   -0.003230   0.080695   0.068662  -0.167949   0.083452
   13  C  2  Y   -0.089786   0.013261  -0.013157   0.105359   0.006316
   14  C  2  Z   -0.048110   0.424937  -0.038451   0.024844  -0.035399
   15  C  2  S   -0.060714  -0.025567  -0.029572  -0.182447  -0.407593
   16  C  2  X   -0.156767   0.103448   0.148231  -0.323074   0.244590
   17  C  2  Y    0.003272   0.027564   0.187303  -0.010670   0.150451
   18  C  2  Z   -0.021675   0.521889  -0.074887   0.047932  -0.099360
   19  O  3  S   -0.033849   0.002791   0.078817  -0.046848   0.031310
   20  O  3  S    0.020652  -0.001921  -0.048528   0.026319  -0.015847
   21  O  3  X   -0.060414  -0.033005   0.052597  -0.140119  -0.005415
   22  O  3  Y    0.085682   0.006667   0.228196  -0.009244   0.118663
   23  O  3  Z    0.086911  -0.191730  -0.004231   0.033611   0.004330
   24  O  3  S    0.234906  -0.022276  -0.667056   0.417047  -0.297946
   25  O  3  X   -0.101321  -0.047467   0.068622  -0.231508  -0.022370
   26  O  3  Y    0.099418   0.014401   0.413520   0.028034   0.218133
   27  O  3  Z    0.111588  -0.259246  -0.008436   0.048261   0.009759
   28  N  4  S   -0.103928   0.001222   0.024802   0.065926  -0.036776
   29  N  4  S    0.085589  -0.000887  -0.015941  -0.040515   0.022541
   30  N  4  X   -0.343483  -0.060691  -0.049422  -0.101218   0.042750
   31  N  4  Y    0.240374  -0.009026   0.061464  -0.052917   0.043329
   32  N  4  Z   -0.034137  -0.322079   0.024511   0.016314   0.002511
   33  N  4  S    0.452319  -0.010634  -0.259868  -0.540037   0.317127
   34  N  4  X   -0.342241  -0.097735  -0.103962  -0.265307   0.143584
   35  N  4  Y    0.273117  -0.014573   0.115377  -0.164504   0.074536
   36  N  4  Z   -0.046393  -0.503585   0.046310   0.054397  -0.006101
   37  H  5  S   -0.015046   0.089553   0.019692  -0.077773  -0.020591
   38  H  5  S    0.026053   0.405424   0.294779  -0.713360  -1.010310
   39  H  6  S    0.012830  -0.101243   0.018298  -0.050734  -0.032424
   40  H  6  S    0.029342  -0.439751   0.315143  -0.544829  -1.180350
   41  H  7  S    0.027651   0.013289   0.000019   0.114843  -0.016942
   42  H  7  S    0.058060   0.076196   0.721997   1.034037  -0.478644
   43  H  8  S   -0.063728   0.004519   0.122198  -0.016341   0.078353
   44  H  8  S   -0.081624   0.043596   1.031094  -0.258549   0.575674
   45  H  9  S   -0.120057   0.001246  -0.005433   0.116187  -0.061817
   46  H  9  S   -0.101976   0.008706   0.137485   0.857277  -0.464786

                     21         22         23         24         25
                    0.1887     0.1988     0.2466     0.3711     0.4506
                     A          A          A          A          A   
    1  C  1  S    0.022633   0.014812   0.091990  -0.040319  -0.008069
    2  C  1  S   -0.001438  -0.006032  -0.025191  -0.009112   0.007297
    3  C  1  X    0.045101   0.120939  -0.248384  -0.022640   0.030545
    4  C  1  Y    0.251554   0.061846   0.005802   0.120092  -0.127744
    5  C  1  Z   -0.107509   0.341319   0.079484   0.023886   0.005610
    6  C  1  S   -0.439552  -0.251143  -1.220444   0.872129   0.354832
    7  C  1  X    0.094370   0.403220  -1.335233   0.600942   0.519237
    8  C  1  Y    0.826656   0.203782  -0.317586   0.872606  -0.530098
    9  C  1  Z   -0.386172   1.233482   0.352709  -0.109537  -0.075056
   10  C  2  S    0.047731   0.021821  -0.173022  -0.043506  -0.063813
   11  C  2  S   -0.023632  -0.009135   0.096058   0.006019   0.003475
   12  C  2  X    0.013139  -0.043742  -0.102262   0.494056  -0.023544
   13  C  2  Y    0.026558   0.008744  -0.220740  -0.046635   0.314822
   14  C  2  Z    0.042391  -0.161370   0.021100  -0.091346  -0.007265
   15  C  2  S   -0.536206  -0.263663   2.196868   0.272242   1.388062
   16  C  2  X    0.140061  -0.069480  -0.577988   1.586607  -0.214060
   17  C  2  Y    0.042877  -0.014933  -0.591122   0.291481   2.422195
   18  C  2  Z    0.081000  -0.402923   0.111690  -0.309737  -0.029068
   19  O  3  S   -0.044924  -0.022465   0.045084   0.070490  -0.019591
   20  O  3  S    0.038911   0.015926  -0.032346  -0.050269  -0.000223
   21  O  3  X   -0.031501  -0.004681   0.182049   0.151932  -0.117807
   22  O  3  Y   -0.014922  -0.012104  -0.077555  -0.289217  -0.008399
   23  O  3  Z   -0.002004   0.053733  -0.027049  -0.014347   0.017488
   24  O  3  S    0.337338   0.189495  -0.402236  -0.644537   0.398418
   25  O  3  X   -0.091402  -0.027491   0.379290   0.358370  -0.325605
   26  O  3  Y   -0.054012  -0.025631  -0.137959  -0.675588  -0.032198
   27  O  3  Z   -0.005665   0.110184  -0.060761  -0.041317   0.058403
   28  N  4  S   -0.067407  -0.018031   0.013848   0.038231   0.125166
   29  N  4  S    0.029199   0.005802  -0.017620  -0.024399  -0.039193
   30  N  4  X    0.221949   0.086197   0.080176  -0.117273   0.135449
   31  N  4  Y    0.035439  -0.007963   0.135735   0.096507   0.272200
   32  N  4  Z   -0.079989   0.107339  -0.016721   0.018339  -0.027211
   33  N  4  S    0.740050   0.218323  -0.051323  -0.533423  -1.989849
   34  N  4  X    0.465126   0.151921   0.271648  -0.435257   0.357299
   35  N  4  Y    0.056705  -0.033064   0.308757   0.324922   1.329592
   36  N  4  Z   -0.145517   0.176784  -0.054220   0.073535  -0.100020
   37  H  5  S   -0.022501   0.063726  -0.046698   0.036820  -0.066469
   38  H  5  S   -0.412914   1.319808  -0.239595  -0.174077   0.282994
   39  H  6  S    0.025635  -0.059275  -0.056573   0.035956  -0.042739
   40  H  6  S    0.419507  -1.229537  -0.322555  -0.167148   0.146563
   41  H  7  S    0.071885   0.025424  -0.031388   0.053453   0.146346
   42  H  7  S    1.154807   0.466131   0.430865   0.563345  -0.551293
   43  H  8  S   -0.058474  -0.031178  -0.037204  -0.011660   0.131269
   44  H  8  S   -0.337039  -0.194816  -0.030597  -0.592656   0.166551
   45  H  9  S   -0.047430  -0.001243  -0.022591  -0.107844  -0.021195
   46  H  9  S   -1.039769  -0.232793  -0.311514   0.206376  -0.465347

                     26         27         28         29         30
                    0.7047     0.7121     0.7409     0.8274     0.8309
                     A          A          A          A          A   
    1  C  1  S   -0.003124   0.032410   0.018266   0.004926   0.005852
    2  C  1  S    0.013571  -0.122365  -0.053860  -0.026853  -0.040633
    3  C  1  X    0.157210  -0.660668  -0.600308   0.276655   0.095422
    4  C  1  Y    0.071179  -0.577662   0.225097  -0.138107  -0.126131
    5  C  1  Z    0.455168   0.197341   0.117771   0.505884  -0.495294
    6  C  1  S   -0.040046   0.273131   0.010284   0.588509   0.752666
    7  C  1  X   -0.268050   1.055211   0.972754  -0.327004   0.194933
    8  C  1  Y   -0.125767   0.960114  -0.411568   0.659244   0.716595
    9  C  1  Z   -0.764104  -0.320989  -0.179532  -1.223330   1.059894
   10  C  2  S    0.001386  -0.009388  -0.014886   0.019605   0.023282
   11  C  2  S   -0.003900  -0.011439  -0.048750  -0.195693  -0.226624
   12  C  2  X    0.138799  -0.067659  -0.413891  -0.655517  -0.585843
   13  C  2  Y    0.090556  -0.416534   0.614980  -0.135892  -0.153745
   14  C  2  Z    0.770263   0.121604   0.030941  -0.371574   0.543556
   15  C  2  S    0.109256  -0.931343   0.069024  -0.042405  -0.041672
   16  C  2  X   -0.153368   0.414828   0.477840   1.577746   1.507261
   17  C  2  Y   -0.100508   0.430449  -0.164897  -0.069074   0.043715
   18  C  2  Z   -0.608851  -0.173682  -0.050367   0.634321  -1.093913
   19  O  3  S    0.000963  -0.001452  -0.016812   0.024573   0.024314
   20  O  3  S    0.001676  -0.016493   0.026125  -0.003134  -0.000917
   21  O  3  X   -0.000866   0.066191  -0.038363  -0.147646  -0.140264
   22  O  3  Y    0.012990  -0.005477   0.021665   0.004615  -0.019026
   23  O  3  Z    0.057425  -0.003457   0.002047  -0.048502   0.100579
   24  O  3  S   -0.020752   0.070618  -0.089682  -0.535548  -0.575178
   25  O  3  X    0.024546  -0.061225  -0.029678   0.106756   0.134704
   26  O  3  Y    0.018947  -0.082643  -0.073107  -0.160300  -0.201337
   27  O  3  Z    0.069000   0.023045   0.004690  -0.118869   0.070766
   28  N  4  S    0.000608  -0.006361   0.024605  -0.022576  -0.023037
   29  N  4  S    0.004051  -0.025261   0.000394   0.021124   0.021159
   30  N  4  X   -0.006457   0.117815  -0.021390  -0.008103   0.055167
   31  N  4  Y    0.003655  -0.009834   0.084036   0.039868   0.054273
   32  N  4  Z    0.062032  -0.014536   0.003241  -0.146792   0.109636
   33  N  4  S    0.005399   0.073249  -0.122973   0.119541   0.041859
   34  N  4  X    0.034936  -0.165432   0.012730  -0.242735  -0.248937
   35  N  4  Y    0.034330  -0.257851   0.320709  -0.107014  -0.079287
   36  N  4  Z    0.064006   0.047646  -0.018322  -0.048490   0.137572
   37  H  5  S   -0.337901   0.019677   0.314134  -0.214264   0.142053
   38  H  5  S   -0.074512   0.111811   0.133460  -0.397873   0.133072
   39  H  6  S    0.386564   0.134838   0.214942   0.190779  -0.209406
   40  H  6  S    0.054281   0.132985   0.114147   0.250301  -0.340588
   41  H  7  S   -0.098907   0.309117  -0.277669   0.063971   0.120329
   42  H  7  S   -0.014483   0.128005  -0.006999   0.218277   0.283033
   43  H  8  S    0.039115  -0.168501  -0.148130   0.157640   0.112519
   44  H  8  S   -0.018964   0.102994  -0.172059  -0.200247  -0.208463
   45  H  9  S   -0.033470   0.259655  -0.115005  -0.145664  -0.176710
   46  H  9  S    0.025777  -0.212308   0.015693  -0.042961  -0.057234

                     31         32         33         34         35
                    0.8678     0.9631     1.0069     1.0273     1.0352
                     A          A          A          A          A   
    1  C  1  S    0.005495   0.056163   0.078262  -0.027341   0.012227
    2  C  1  S    0.002172  -0.086838  -0.115110   0.022555  -0.010123
    3  C  1  X   -0.267983   0.131808   0.324319   0.127540   0.132415
    4  C  1  Y    0.651152  -0.165563   0.202124   0.065798   0.039004
    5  C  1  Z    0.049628  -0.068657  -0.094641   0.104711   0.682957
    6  C  1  S    0.422515  -0.271759   0.179322   0.494296  -0.116365
    7  C  1  X    1.021551  -0.224292  -0.297921   0.105390  -0.208103
    8  C  1  Y   -1.550538   0.481650  -0.431501  -0.095651  -0.072015
    9  C  1  Z   -0.206083   0.136724   0.049447  -0.176459  -0.764643
   10  C  2  S    0.019195  -0.052290  -0.019247  -0.010648   0.002223
   11  C  2  S   -0.067909   0.492349   0.332591  -0.223959   0.051302
   12  C  2  X   -0.071362  -0.012149  -0.040727  -0.099503   0.060382
   13  C  2  Y   -0.755428   0.172219  -0.100535   0.011295  -0.007993
   14  C  2  Z    0.016135   0.005869  -0.008078   0.044519   0.146786
   15  C  2  S    0.084701  -0.674314   0.146638   0.265409  -0.012269
   16  C  2  X   -0.222177  -0.119694  -0.284623   0.656419  -0.238528
   17  C  2  Y    2.143956  -0.922211   0.535081   0.541130  -0.081938
   18  C  2  Z    0.020553   0.016025   0.080129  -0.165540  -0.141057
   19  O  3  S   -0.007913   0.023398  -0.020678   0.001577  -0.001502
   20  O  3  S   -0.022882  -0.046608   0.031493   0.007162   0.001652
   21  O  3  X    0.040636   0.219339  -0.158007  -0.079676   0.016183
   22  O  3  Y    0.043829   0.198588  -0.167373  -0.122215   0.031316
   23  O  3  Z   -0.024250  -0.037686   0.019993   0.036177   0.100975
   24  O  3  S    0.531966   0.045065   0.084884  -0.181797   0.045084
   25  O  3  X   -0.259790  -0.015963  -0.020142   0.033481  -0.009904
   26  O  3  Y    0.040868   0.221992  -0.042353  -0.112588   0.025752
   27  O  3  Z    0.046087  -0.004868   0.007026  -0.008973  -0.036983
   28  N  4  S   -0.008369  -0.006435   0.010128   0.035855  -0.007954
   29  N  4  S    0.047331  -0.000967   0.015666  -0.062934   0.021592
   30  N  4  X   -0.095121  -0.212473  -0.104652  -0.463706   0.047193
   31  N  4  Y   -0.137470   0.186932  -0.070565   0.339558  -0.073942
   32  N  4  Z    0.034906   0.034739   0.020613   0.073456  -0.009782
   33  N  4  S   -0.972366   0.650997  -0.321785  -0.213224   0.026677
   34  N  4  X    0.198195   0.097970   0.189531   0.000611   0.052648
   35  N  4  Y    0.256750  -0.368125   0.259832  -0.191925   0.050034
   36  N  4  Z   -0.060347  -0.002691  -0.050905   0.014443   0.031845
   37  H  5  S    0.126634   0.427227   0.483722   0.091140   0.779476
   38  H  5  S    0.402660  -0.327179  -0.302117  -0.198150  -1.091439
   39  H  6  S    0.130901   0.401194   0.626627  -0.213849  -0.795430
   40  H  6  S    0.258864  -0.345706  -0.445390   0.232698   1.224345
   41  H  7  S   -0.121166   0.218119   0.571527  -0.254463   0.241905
   42  H  7  S   -0.724592   0.339857  -0.675538   0.046995  -0.279695
   43  H  8  S    0.349069   0.924926  -0.731347  -0.238194   0.015549
   44  H  8  S   -0.083971  -0.738570   0.796672   0.158139   0.042798
   45  H  9  S   -0.041729   0.231128  -0.016424   1.036947  -0.175758
   46  H  9  S   -0.191384  -0.087819  -0.063814  -0.952618   0.155178

                     36         37         38         39         40
                    1.0489     1.1823     1.2336     1.3387     1.4819
                     A          A          A          A          A   
    1  C  1  S   -0.007267   0.000963   0.010849  -0.032000   0.035445
    2  C  1  S    0.034056  -0.014897  -0.065267   0.613947  -0.334026
    3  C  1  X    0.262296  -0.037132   0.094289  -0.140906  -0.013354
    4  C  1  Y   -0.514111   0.039654   0.021961  -0.205181  -0.204290
    5  C  1  Z   -0.019663  -0.098285  -0.029721   0.022330  -0.019872
    6  C  1  S    0.093315   0.027527   0.264948  -0.777372  -0.507441
    7  C  1  X   -0.068727   0.123374  -0.168541   0.544446  -0.683212
    8  C  1  Y    0.324656  -0.069210   0.102805   0.537594  -0.094140
    9  C  1  Z   -0.006611   0.415201   0.052657  -0.091006   0.239356
   10  C  2  S    0.001302   0.000590   0.017094   0.002276   0.009520
   11  C  2  S    0.029425  -0.013747  -0.426100   0.859513  -1.121062
   12  C  2  X    0.054270   0.023315  -0.059834  -0.197034   0.211894
   13  C  2  Y   -0.237514   0.006890   0.086291  -0.089587   0.021271
   14  C  2  Z    0.003105   0.133236   0.006063   0.040811  -0.028928
   15  C  2  S    0.079709   0.025900   1.755275  -0.859928   2.160764
   16  C  2  X   -0.219103  -0.101206   0.818713   0.181896  -1.319219
   17  C  2  Y    0.949961   0.008484   0.318845   0.653668  -0.012263
   18  C  2  Z   -0.006164  -0.571294  -0.151972  -0.061001   0.174198
   19  O  3  S   -0.021071   0.000190   0.025315  -0.015962  -0.015460
   20  O  3  S    0.037151  -0.001041  -0.019583   0.047735   0.048551
   21  O  3  X   -0.002629   0.032242   0.004855  -0.035304   0.090323
   22  O  3  Y   -0.076466   0.009434   0.215736  -0.109271   0.208127
   23  O  3  Z    0.023698   0.155395  -0.005274   0.031739  -0.131721
   24  O  3  S    0.295073   0.000894  -0.468348   0.178771   0.132753
   25  O  3  X   -0.140344  -0.010397   0.181031  -0.101756  -0.059181
   26  O  3  Y    0.000905  -0.005441  -0.408561   0.126409  -0.171389
   27  O  3  Z    0.014801  -0.036574  -0.023356  -0.004387   0.137037
   28  N  4  S    0.016485   0.001193   0.071877   0.001040  -0.021138
   29  N  4  S   -0.046015  -0.002911  -0.183744  -0.003704   0.024482
   30  N  4  X    0.119694  -0.184764   0.165616  -0.607446  -0.660418
   31  N  4  Y   -0.070759  -0.034523  -0.834475  -0.465066  -0.079139
   32  N  4  Z   -0.065942  -1.010607   0.007272   0.118314   0.110328
   33  N  4  S   -0.514254  -0.016842  -0.544264   0.025705  -0.189473
   34  N  4  X    0.054085   0.204446  -0.449290   0.952613   1.430886
   35  N  4  Y    0.268078   0.046707   1.356803   0.827018   0.362650
   36  N  4  Z    0.026914   1.146754   0.028485  -0.188981  -0.241168
   37  H  5  S    0.563729  -0.008141   0.091675  -0.228113   0.125347
   38  H  5  S   -0.699919   0.230716  -0.190002   0.513489  -0.332286
   39  H  6  S    0.309989  -0.022704   0.096062  -0.204233   0.131171
   40  H  6  S   -0.390577  -0.174316  -0.199516   0.478094  -0.411450
   41  H  7  S   -0.999514   0.045019   0.064421  -0.102138   0.100977
   42  H  7  S    1.202969  -0.080111   0.050740   0.560147   0.004844
   43  H  8  S   -0.097173   0.004110   0.127991  -0.062773  -0.043051
   44  H  8  S    0.055576  -0.003715  -0.299271   0.185411  -0.050050
   45  H  9  S   -0.145821   0.012355   0.631864  -0.170043  -0.454899
   46  H  9  S    0.036380  -0.011134  -0.695680  -0.523606  -0.288959

                     41         42         43         44         45
                    1.4903     1.6167     1.7966     1.9982     2.6423
                     A          A          A          A          A   
    1  C  1  S   -0.004700   0.018100  -0.021467  -0.077615   0.022469
    2  C  1  S    0.024958   0.090444  -1.366199  -1.442505   0.294526
    3  C  1  X    0.008425  -0.151465  -0.071294   0.055623  -0.034861
    4  C  1  Y    0.005049  -0.064144  -0.026497   0.035131   0.006377
    5  C  1  Z    0.010224   0.004302   0.019100  -0.005030   0.010421
    6  C  1  S    0.094041  -0.918400   2.538050   4.413838  -1.377338
    7  C  1  X    0.121075  -0.146698   0.088111   0.998143  -0.558201
    8  C  1  Y    0.078323   0.022469  -0.007817   0.577457   0.094007
    9  C  1  Z    0.197140   0.117119  -0.033869  -0.230996   0.092729
   10  C  2  S    0.000031  -0.015137   0.027533   0.036816   0.005504
   11  C  2  S    0.140957  -0.000338   0.128218   0.865063  -0.097113
   12  C  2  X   -0.011679   0.318812   0.031345  -0.096140   0.038348
   13  C  2  Y    0.003467  -0.037784   0.064585  -0.123053  -0.082561
   14  C  2  Z    0.125603  -0.054334  -0.011280   0.020382  -0.004589
   15  C  2  S   -0.291981   0.881369  -1.106371  -2.473961  -1.375359
   16  C  2  X    0.063092  -0.427445  -0.259793   1.966617  -0.978155
   17  C  2  Y   -0.011418  -0.779817  -0.073765   1.218585  -2.264939
   18  C  2  Z   -0.638288   0.075403   0.063857  -0.401039   0.246805
   19  O  3  S    0.000836   0.051966   0.003614  -0.010401   0.003340
   20  O  3  S   -0.001676  -0.212046   0.004528  -0.026750  -0.079693
   21  O  3  X   -0.175713  -0.924420  -0.119028  -0.000217  -0.131444
   22  O  3  Y   -0.065479   0.217490  -0.716540   0.620387  -0.130313
   23  O  3  Z   -0.979312   0.144610   0.057839  -0.017056   0.026544
   24  O  3  S   -0.014279  -0.036790   0.078296   0.152630   0.168328
   25  O  3  X    0.188354   1.302956   0.043801  -0.165968   0.289982
   26  O  3  Y    0.067882  -0.272428   1.260066  -1.262435   0.572913
   27  O  3  Z    1.097807  -0.206405  -0.066755   0.067644  -0.068249
   28  N  4  S    0.002334  -0.017720  -0.011417   0.018312  -0.017454
   29  N  4  S   -0.006464   0.191838  -0.002933  -0.283282  -1.906493
   30  N  4  X    0.033041  -0.045264  -0.080001  -0.058157  -0.078086
   31  N  4  Y   -0.010670   0.017662  -0.210410   0.047259   0.201527
   32  N  4  Z   -0.152842   0.002772   0.026019   0.012062   0.010500
   33  N  4  S    0.038597   0.050210   0.413685   0.113315   4.058109
   34  N  4  X   -0.080346   0.106008   0.232188  -0.216680   0.481841
   35  N  4  Y   -0.011144  -0.083721   0.139993   0.004859  -1.435122
   36  N  4  Z    0.345548  -0.005340  -0.058072   0.036838  -0.054183
   37  H  5  S    0.083010   0.072962  -0.146373  -0.299405   0.026188
   38  H  5  S   -0.019662   0.050836  -0.458731  -0.374252   0.046412
   39  H  6  S   -0.132837   0.070158  -0.144035  -0.305193   0.035328
   40  H  6  S    0.081069  -0.037852  -0.452702  -0.339954   0.085799
   41  H  7  S   -0.008884  -0.036081  -0.111593  -0.304007   0.155175
   42  H  7  S    0.044589   0.313846  -0.578354  -0.346082   0.120959
   43  H  8  S    0.009360   0.276442   0.399325  -0.422821   0.198020
   44  H  8  S    0.002585  -0.482032   0.302517  -0.231496  -0.093640
   45  H  9  S    0.047548   0.003144   0.008708  -0.031660  -0.383156
   46  H  9  S    0.014953   0.070988  -0.223589  -0.135238  -0.158297

                     46
                    3.0935
                     A   
    1  C  1  S   -0.007624
    2  C  1  S   -0.011823
    3  C  1  X    0.027354
    4  C  1  Y    0.018421
    5  C  1  Z   -0.001092
    6  C  1  S    0.077276
    7  C  1  X    0.241927
    8  C  1  Y   -0.385599
    9  C  1  Z   -0.049487
   10  C  2  S    0.039508
   11  C  2  S    0.040622
   12  C  2  X   -0.139544
   13  C  2  Y    0.073920
   14  C  2  Z    0.023464
   15  C  2  S   -0.863022
   16  C  2  X   -0.929918
   17  C  2  Y    1.002867
   18  C  2  Z    0.141121
   19  O  3  S    0.054893
   20  O  3  S   -1.749551
   21  O  3  X    0.226406
   22  O  3  Y   -0.053422
   23  O  3  Z   -0.038470
   24  O  3  S    2.726592
   25  O  3  X   -0.838413
   26  O  3  Y    0.169972
   27  O  3  Z    0.145983
   28  N  4  S   -0.001116
   29  N  4  S    0.058249
   30  N  4  X   -0.065990
   31  N  4  Y   -0.030977
   32  N  4  Z    0.011925
   33  N  4  S   -0.311670
   34  N  4  X    0.419762
   35  N  4  Y    0.146958
   36  N  4  Z   -0.078557
   37  H  5  S    0.032170
   38  H  5  S    0.058052
   39  H  6  S    0.007988
   40  H  6  S    0.065139
   41  H  7  S   -0.092240
   42  H  7  S   -0.119255
   43  H  8  S   -0.314170
   44  H  8  S   -0.093626
   45  H  9  S   -0.092795
   46  H  9  S   -0.082233
 ...... END OF RHF CALCULATION ......
 STEP CPU TIME =     6.20 TOTAL CPU TIME =          6.2 (      0.1 MIN)
 TOTAL WALL CLOCK TIME=          6.4 SECONDS, CPU UTILIZATION IS    97.96%

     ---------------------------------------------------------------------
     PROPERTIES FOR THE B3LYP    DFT FUNCTIONAL (RHF  TYPE) DENSITY MATRIX
     ---------------------------------------------------------------------

          -----------------
          ENERGY COMPONENTS
          -----------------

         WAVEFUNCTION NORMALIZATION =       1.0000000000

                ONE ELECTRON ENERGY =    -521.7040745298
                TWO ELECTRON ENERGY =     192.7931042017
           NUCLEAR REPULSION ENERGY =     121.0122696257
                                      ------------------
                       TOTAL ENERGY =    -207.8987007024

 ELECTRON-ELECTRON POTENTIAL ENERGY =     192.7931042017
  NUCLEUS-ELECTRON POTENTIAL ENERGY =    -728.1425482889
   NUCLEUS-NUCLEUS POTENTIAL ENERGY =     121.0122696257
                                      ------------------
             TOTAL POTENTIAL ENERGY =    -414.3371744615
               TOTAL KINETIC ENERGY =     206.4384737591
                 VIRIAL RATIO (V/T) =       2.0070734244

          ---------------------------------------
          MULLIKEN AND LOWDIN POPULATION ANALYSES
          ---------------------------------------

     ATOMIC MULLIKEN POPULATION IN EACH MOLECULAR ORBITAL

                      1          2          3          4          5

                  2.000000   2.000000   2.000000   2.000000   2.000000

    1            -0.000068   0.000073   0.006541   1.983688   0.016789
    2             0.005252   0.011653   1.994054   0.006560   0.220534
    3             1.993921  -0.000016  -0.000784  -0.000005   1.589213
    4            -0.000017   1.986921  -0.000148   0.000027   0.066762
    5            -0.000000   0.000002   0.000060   0.003208   0.000112
    6            -0.000001  -0.000000   0.000071   0.003208  -0.000156
    7             0.000008  -0.000000   0.000027   0.003313  -0.001057
    8             0.000894   0.000001   0.000056   0.000000   0.105711
    9             0.000012   0.001366   0.000123   0.000002   0.002091

                      6          7          8          9         10

                  2.000000   2.000000   2.000000   2.000000   2.000000

    1             0.035514   1.289931   0.070844   0.390368   0.534483
    2             0.372703   0.284579   0.357089   0.490653   0.331781
    3             0.182238   0.040646   0.971315   0.186320   0.464861
    4             1.301027   0.113962   0.186801   0.465730   0.242378
    5            -0.000620   0.074735   0.015296   0.029220   0.127932
    6            -0.000193   0.075696   0.013289   0.037331   0.100026
    7             0.000716   0.089470   0.016211   0.109972   0.063774
    8             0.039217   0.000448   0.321461   0.049301   0.027394
    9             0.069398   0.030533   0.047694   0.241104   0.107370

                     11         12         13         14         15

                  2.000000   2.000000   2.000000   2.000000   2.000000

    1             0.796816   0.740861   0.328662   0.355145   0.018928
    2             0.407721   0.182828   0.308215   0.159414   0.258591
    3             0.224168   0.017435   0.942629   1.229545   0.615242
    4             0.078402   0.294064   0.103353   0.047070   1.077144
    5             0.210627   0.082631   0.138351   0.065371   0.009252
    6             0.274170   0.020534   0.176642   0.044700   0.012247
    7             0.007645   0.517014   0.002144   0.006543   0.002204
    8             0.000018   0.008507   0.000003   0.055984   0.001923
    9             0.000433   0.136126   0.000002   0.036228   0.004469

                     16

                  2.000000

    1             0.044621
    2             0.101267
    3             0.111228
    4             1.629359
    5             0.001362
    6             0.002558
    7             0.006982
    8             0.029998
    9             0.072625

               ----- POPULATIONS IN EACH AO -----
                             MULLIKEN      LOWDIN
              1  C  1  S      1.98660     1.97422
              2  C  1  S      0.36929     0.42562
              3  C  1  X      0.56595     0.53662
              4  C  1  Y      0.56242     0.52186
              5  C  1  Z      0.57855     0.53994
              6  C  1  S      1.12670     0.58120
              7  C  1  X      0.41773     0.55991
              8  C  1  Y      0.44868     0.56084
              9  C  1  Z      0.55727     0.59968
             10  C  2  S      1.98453     1.97378
             11  C  2  S      0.42836     0.42809
             12  C  2  X      0.53734     0.50547
             13  C  2  Y      0.63299     0.60069
             14  C  2  Z      0.45601     0.43438
             15  C  2  S      0.58413     0.51157
             16  C  2  X      0.24298     0.44199
             17  C  2  Y      0.10272     0.43433
             18  C  2  Z      0.52383     0.53858
             19  O  3  S      1.98494     1.97873
             20  O  3  S      0.42312     0.57693
             21  O  3  X      0.72725     0.72154
             22  O  3  Y      0.61226     0.57991
             23  O  3  Z      0.82482     0.83036
             24  O  3  S      1.50076     1.00036
             25  O  3  X      0.85702     0.89736
             26  O  3  Y      0.65440     0.70615
             27  O  3  Z      0.98337     0.97883
             28  N  4  S      1.98822     1.97985
             29  N  4  S      0.39663     0.52874
             30  N  4  X      0.63466     0.60652
             31  N  4  Y      0.63803     0.61974
             32  N  4  Z      0.53594     0.52540
             33  N  4  S      1.45796     0.87086
             34  N  4  X      0.66898     0.74962
             35  N  4  Y      0.58683     0.71179
             36  N  4  Z      0.68559     0.71315
             37  H  5  S      0.46394     0.45983
             38  H  5  S      0.29360     0.41477
             39  H  6  S      0.46426     0.46066
             40  H  6  S      0.29586     0.41607
             41  H  7  S      0.47423     0.47116
             42  H  7  S      0.35074     0.44262
             43  H  8  S      0.43605     0.44059
             44  H  8  S      0.20487     0.31070
             45  H  9  S      0.46326     0.45903
             46  H  9  S      0.28632     0.37994

          ----- MULLIKEN ATOMIC OVERLAP POPULATIONS -----
          (OFF-DIAGONAL ELEMENTS NEED TO BE MULTIPLIED BY 2)

             1           2           3           4           5

    1    5.5499355
    2    0.1792377   4.7823774
    3   -0.0798428   0.2361830   8.2331880
    4   -0.0916989   0.4834197  -0.0690481   6.9653707
    5    0.3510242  -0.0294345   0.0017098   0.0005377   0.4733773
    6    0.3576917  -0.0350701   0.0014173  -0.0005217  -0.0164692
    7    0.3385158  -0.0345457  -0.0002721   0.0022419  -0.0230605
    8   -0.0003597  -0.0291928   0.2469667   0.0046444   0.0000238
    9    0.0086918  -0.0600814  -0.0023443   0.2978904  -0.0001706

             6           7           8           9

    6    0.4770653
    7   -0.0238934   0.5610469
    8    0.0000558   0.0051423   0.4136424
    9   -0.0001531  -0.0002093  -0.0000077   0.5059600

          TOTAL MULLIKEN AND LOWDIN ATOMIC POPULATIONS
       ATOM         MULL.POP.    CHARGE          LOW.POP.     CHARGE
    1 C             6.613195   -0.613195         6.299893   -0.299893
    2 C             5.492893    0.507107         5.868872    0.131128
    3 O             8.567957   -0.567957         8.270184   -0.270184
    4 N             7.592836   -0.592836         7.305684   -0.305684
    5 H             0.757538    0.242462         0.874602    0.125398
    6 H             0.760123    0.239877         0.876729    0.123271
    7 H             0.824966    0.175034         0.913775    0.086225
    8 H             0.640915    0.359085         0.751294    0.248706
    9 H             0.749576    0.250424         0.838966    0.161034

          -------------------------------
          BOND ORDER AND VALENCE ANALYSIS     BOND ORDER THRESHOLD=0.050
          -------------------------------

                   BOND                       BOND                       BOND
  ATOM PAIR DIST  ORDER      ATOM PAIR DIST  ORDER      ATOM PAIR DIST  ORDER
    1   2  1.509  0.902        1   5  1.094  0.903        1   6  1.094  0.903
    1   7  1.094  0.913        2   3  1.353  0.965        2   4  1.286  1.787
    3   4  2.282  0.122        3   8  0.972  0.805        4   9  1.026  0.862

                       TOTAL       BONDED        FREE
      ATOM            VALENCE     VALENCE     VALENCE
    1 C                 3.638       3.638      -0.000
    2 C                 3.665       3.665      -0.000
    3 O                 1.938       1.938       0.000
    4 N                 2.815       2.815       0.000
    5 H                 0.905       0.905       0.000
    6 H                 0.903       0.903      -0.000
    7 H                 0.926       0.926      -0.000
    8 H                 0.853       0.853       0.000
    9 H                 0.912       0.912      -0.000

          ---------------------
          ELECTROSTATIC MOMENTS
          ---------------------

 POINT   1           X           Y           Z (BOHR)    CHARGE
                -0.000003    0.000005    0.000002        0.00 (A.U.)
         DX          DY          DZ         /D/  (DEBYE)
    -0.203842   -3.309514    0.171489    3.320217
 ...... END OF PROPERTY EVALUATION ......
 STEP CPU TIME =     0.01 TOTAL CPU TIME =          6.2 (      0.1 MIN)
 TOTAL WALL CLOCK TIME=          6.4 SECONDS, CPU UTILIZATION IS    97.81%

 BEGINNING ONE ELECTRON GRADIENT...
 ..... END OF 1-ELECTRON GRADIENT ......
 STEP CPU TIME =     0.00 TOTAL CPU TIME =          6.2 (      0.1 MIN)
 TOTAL WALL CLOCK TIME=          6.4 SECONDS, CPU UTILIZATION IS    97.65%

          ----------------------
          GRADIENT OF THE ENERGY
          ----------------------
 MEMORY FOR GRID POINT CONTRIBUTIONS TO THE DFT GRADIENT=    587967 WORDS.
 STEP CPU TIME =     1.56 TOTAL CPU TIME =          7.8 (      0.1 MIN)
 TOTAL WALL CLOCK TIME=          8.0 SECONDS, CPU UTILIZATION IS    97.99%
 THE COARSE/FINE SCHWARZ SCREENINGS SKIPPED         5575/        2798 BLOCKS.
 THE NUMBER OF GRADIENT INTEGRAL BLOCKS COMPUTED WAS     23644
 ...... END OF 2-ELECTRON GRADIENT ......
 STEP CPU TIME =     0.03 TOTAL CPU TIME =          7.8 (      0.1 MIN)
 TOTAL WALL CLOCK TIME=          8.0 SECONDS, CPU UTILIZATION IS    98.00%

          NSERCH=  0     ENERGY=    -207.8987007

                                 -----------------------
                                 GRADIENT (HARTREE/BOHR)
                                 -----------------------
        ATOM     ZNUC       DE/DX         DE/DY         DE/DZ
 --------------------------------------------------------------
    1  C            6.0     0.0028081    -0.0012819     0.0005985
    2  C            6.0     0.0140053    -0.0333953    -0.0011473
    3  O            8.0    -0.0292796     0.0048045     0.0049022
    4  N            7.0     0.0132675     0.0194429    -0.0021279
    5  H            1.0     0.0010707    -0.0007609    -0.0026469
    6  H            1.0     0.0027172     0.0001155     0.0003381
    7  H            1.0     0.0013942     0.0006818    -0.0002878
    8  H            1.0     0.0014180     0.0176794    -0.0008772
    9  H            1.0    -0.0074012    -0.0072860     0.0012482

          MAXIMUM GRADIENT = 0.0333953    RMS GRADIENT = 0.0109360

 NSERCH:   0  E=     -207.8987007024  GRAD. MAX=  0.0333953  R.M.S.=  0.0109360

          FORCE CONSTANT MATRIX NOT UPDATED --- TAKING FIRST STEP
          MIN SEARCH, CORRECT HESSIAN, TRYING PURE NR STEP
               NR STEP HAS LENGTH         =   2.499934
          TRIM/QA LAMBDA FOR NON-TS MODES =  -0.00299248
          TRIM/QA STEP HAS LENGTH         =   0.300000
          RADIUS OF STEP TAKEN=   0.30000  CURRENT TRUST RADIUS=   0.30000

 BEGINNING GEOMETRY SEARCH POINT NSERCH=   1 ...

 COORDINATES OF ALL ATOMS ARE (ANGS)
   ATOM   CHARGE       X              Y              Z
 ------------------------------------------------------------
 C           6.0  -1.2768223341  -0.6488239370   0.2573153338
 C           6.0   0.0073756630   0.0959381888  -0.0355203925
 O           8.0   1.1591842512  -0.6624142016  -0.1580666075
 N           7.0   0.0212551828   1.3626618325  -0.1304473507
 H           1.0  -2.0882040982  -0.2926474126  -0.3873856893
 H           1.0  -1.6093452139  -0.4612836156   1.2840043940
 H           1.0  -1.1580367484  -1.7271969100   0.1175684816
 H           1.0   0.9326820077  -1.6321796460  -0.1235053955
 H           1.0   1.0148612899   1.6941457015  -0.1820027739

          INTERNUCLEAR DISTANCES (ANGS.)
          ------------------------------

                1 C          2 C          3 O          4 N          5 H     

   1 C       0.0000000    1.5131384 *  2.4712052 *  2.4251681 *  1.0958291 *
   2 C       1.5131384 *  0.0000000    1.3844779 *  1.2703514 *  2.1601533 *
   3 O       2.4712052 *  1.3844779 *  0.0000000    2.3230537 *  3.2764075  
   4 N       2.4251681 *  1.2703514 *  2.3230537 *  0.0000000    2.6936749 *
   5 H       1.0958291 *  2.1601533 *  3.2764075    2.6936749 *  0.0000000  
   6 H       1.0953690 *  2.1599602 *  3.1280629    2.8260057 *  1.7467939 *
   7 H       1.0938590 *  2.1692035 *  2.5650049 *  3.3165446    1.7827289 *
   8 H       2.4482488 *  1.9622244 *  0.9964651 *  3.1304668    3.3150765  
   9 H       3.3067085    1.8949279 *  2.3610965 *  1.0487100 *  3.6903311  

                6 H          7 H          8 H          9 H     

   1 C       1.0953690 *  1.0938590 *  2.4482488 *  3.3067085  
   2 C       2.1599602 *  2.1692035 *  1.9622244 *  1.8949279 *
   3 O       3.1280629    2.5650049 *  0.9964651 *  2.3610965 *
   4 N       2.8260057 *  3.3165446    3.1304668    1.0487100 *
   5 H       1.7467939 *  1.7827289 *  3.3150765    3.6903311  
   6 H       0.0000000    1.7795473 *  3.1327278    3.6988528  
   7 H       1.7795473 *  0.0000000    2.1067154 *  4.0640883  
   8 H       3.1327278    2.1067154 *  0.0000000    3.3278545  
   9 H       3.6988528    4.0640883    3.3278545    0.0000000  

  * ... LESS THAN  3.000

 ...... END OF ONE-ELECTRON INTEGRALS ......
 STEP CPU TIME =     0.01 TOTAL CPU TIME =          7.8 (      0.1 MIN)
 TOTAL WALL CLOCK TIME=          8.0 SECONDS, CPU UTILIZATION IS    98.00%
  ...... END OF TWO-ELECTRON INTEGRALS .....
 STEP CPU TIME =     0.00 TOTAL CPU TIME =          7.8 (      0.1 MIN)
 TOTAL WALL CLOCK TIME=          8.0 SECONDS, CPU UTILIZATION IS    97.88%

          --------------------------
             R-B3LYP SCF CALCULATION
          --------------------------
         DENSITY MATRIX CONVERGENCE THRESHOLD=  1.00E-04
     COARSE -> FINE DFT GRID SWITCH THRESHOLD=  1.50E-03 (SWITCH IN $DFT)
                   HF -> DFT SWITCH THRESHOLD=  5.00E-03 (SWOFF IN $DFT)

 DIRECT SCF CALCULATION, SCHWRZ=T   FDIFF=T,  DIRTHR=  0.00E+00 NITDIR=10

 DFT CODE IS SWITCHING FROM THE FINE GRID NRAD= 96,  NLEB=  590
                      TO THE COARSE GRID NRAD0= 24, NLEB0=  110

                                                                                   NONZERO     BLOCKS
 ITER EX DEM     TOTAL ENERGY        E CHANGE  DENSITY CHANGE    DIIS ERROR      INTEGRALS    SKIPPED
          * * *   INITIATING DIIS PROCEDURE   * * *
   1  0  0     -207.8921736365  -207.8921736365   0.025844886   0.027727344         536386       4843
   2  1  0     -207.8981542582    -0.0059806216   0.015068821   0.012089695         530859       6371
   3  2  0     -207.8979051868     0.0002490714   0.008755331   0.018403601         526443       7007
   4  3  0     -207.8984668101    -0.0005616233   0.002221068   0.003396915         524611       7255
   5  4  0     -207.8984837700    -0.0000169599   0.000558342   0.000966520         515543       8115
 DFT CODE IS SWITCHING BACK TO THE FINE GRID
          * * *   INITIATING DIIS PROCEDURE   * * *
   6  5  0     -207.9001844480    -0.0017006780   0.001598822   0.001535691         536384       4845
   7  6  0     -207.9001935288    -0.0000090808   0.000739666   0.000813404         515975       8034
   8  7  0     -207.9001934869     0.0000000419   0.000356171   0.000847902         511054       8580
   9  8  0     -207.9001946880    -0.0000012011   0.000137276   0.000178355         506761       8909
  10  9  0     -207.9001947526    -0.0000000646   0.000041632   0.000061097         495904       9899
  11 10  0     -207.9001947621    -0.0000000095   0.000016117   0.000014778         485955      10626

          -----------------
          DENSITY CONVERGED
          -----------------
     TIME TO FORM FOCK OPERATORS=       5.0 SECONDS (       0.5 SEC/ITER)
     FOCK TIME ON FIRST ITERATION=       0.1, LAST ITERATION=       0.8
     TIME TO SOLVE SCF EQUATIONS=       0.0 SECONDS (       0.0 SEC/ITER)

 FINAL R-B3LYP ENERGY IS     -207.9001947621 AFTER  11 ITERATIONS
 DFT EXCHANGE + CORRELATION ENERGY =       -22.6273878712
 TOTAL ELECTRON NUMBER             =        31.9999985213
 ...... END OF RHF CALCULATION ......
 STEP CPU TIME =     5.13 TOTAL CPU TIME =         13.0 (      0.2 MIN)
 TOTAL WALL CLOCK TIME=         13.2 SECONDS, CPU UTILIZATION IS    98.26%
 ..... END OF 1-ELECTRON GRADIENT ......
 STEP CPU TIME =     0.01 TOTAL CPU TIME =         13.0 (      0.2 MIN)
 TOTAL WALL CLOCK TIME=         13.2 SECONDS, CPU UTILIZATION IS    98.26%
 MEMORY FOR GRID POINT CONTRIBUTIONS TO THE DFT GRADIENT=    587967 WORDS.
 STEP CPU TIME =     1.56 TOTAL CPU TIME =         14.5 (      0.2 MIN)
 TOTAL WALL CLOCK TIME=         14.8 SECONDS, CPU UTILIZATION IS    98.44%
 ...... END OF 2-ELECTRON GRADIENT ......
 STEP CPU TIME =     0.02 TOTAL CPU TIME =         14.6 (      0.2 MIN)
 TOTAL WALL CLOCK TIME=         14.8 SECONDS, CPU UTILIZATION IS    98.31%

          NSERCH=  1     ENERGY=    -207.9001948

                                 -----------------------
                                 GRADIENT (HARTREE/BOHR)
                                 -----------------------
        ATOM     ZNUC       DE/DX         DE/DY         DE/DZ
 --------------------------------------------------------------
    1  C            6.0     0.0073430     0.0023733     0.0027337
    2  C            6.0     0.0119363    -0.0052492     0.0002144
    3  O            8.0    -0.0051501     0.0093361    -0.0017121
    4  N            7.0    -0.0134791    -0.0027038    -0.0075811
    5  H            1.0    -0.0033960    -0.0001577     0.0013884
    6  H            1.0    -0.0037766     0.0003826    -0.0014555
    7  H            1.0     0.0020595     0.0010933     0.0003039
    8  H            1.0    -0.0039272    -0.0028552    -0.0005930
    9  H            1.0     0.0083903    -0.0022195     0.0067013

          MAXIMUM GRADIENT = 0.0134791    RMS GRADIENT = 0.0053745

 NSERCH:   1  E=     -207.9001947621  GRAD. MAX=  0.0134791  R.M.S.=  0.0053745

          HESSIAN UPDATED USING THE BFGS FORMULA
             ACTUAL ENERGY CHANGE WAS  -0.0014940597
          PREDICTED ENERGY CHANGE WAS  -0.0027211116 RATIO=  0.549
          MIN SEARCH, CORRECT HESSIAN, TRYING PURE NR STEP
               NR STEP HAS LENGTH         =  34.953792
          TRIM/QA LAMBDA FOR NON-TS MODES =  -0.03598959
          TRIM/QA STEP HAS LENGTH         =   0.300000
          RADIUS OF STEP TAKEN=   0.30000  CURRENT TRUST RADIUS=   0.30000

 BEGINNING GEOMETRY SEARCH POINT NSERCH=   2 ...

 COORDINATES OF ALL ATOMS ARE (ANGS)
   ATOM   CHARGE       X              Y              Z
 ------------------------------------------------------------
 C           6.0  -1.2845880980  -0.6497300714   0.2439167080
 C           6.0  -0.0000171996   0.1019517090  -0.0571184666
 O           8.0   1.1860300665  -0.6768965205  -0.1336276316
 N           7.0   0.0416577211   1.3560595475  -0.0260078682
 H           1.0  -2.0890465109  -0.2759239800  -0.3933548399
 H           1.0  -1.6016588417  -0.4716263187   1.2795703937
 H           1.0  -1.1732672710  -1.7295415804   0.1068670170
 H           1.0   0.9370340158  -1.6552038319  -0.1076982955
 H           1.0   0.9868061179   1.7291110465  -0.2705870170

          INTERNUCLEAR DISTANCES (ANGS.)
          ------------------------------

                1 C          2 C          3 O          4 N          5 H     

   1 C       0.0000000    1.5184762 *  2.4994463 *  2.4197064 *  1.0922451 *
   2 C       1.5184762 *  0.0000000    1.4209737 *  1.2551857 *  2.1493926 *
   3 O       2.4994463 *  1.4209737 *  0.0000000    2.3353973 *  3.3097377  
   4 N       2.4197064 *  1.2551857 *  2.3353973 *  0.0000000    2.7089139 *
   5 H       1.0922451 *  2.1493926 *  3.3097377    2.7089139 *  0.0000000  
[...]
                   Z  1.37726095 -5.87432368-17.38328076  0.00022473  0.09878988
               TOTAL 13.76159268 14.28113861 18.07596146  0.00468042  0.20037375

                            6           7           8           9          10
       FREQUENCY:         0.34      193.81      338.74      407.67      523.10  
        SYMMETRY:         A           A           A           A           A   
    REDUCED MASS:      6.73672     1.06913     1.14379     2.61228     3.22860
    IR INTENSITY:      0.00255     0.01280     3.37102     0.05555     0.66418

  1   C            X  0.10812916  0.00020923 -0.00041592 -0.09065577 -0.08791892
                   Y  0.01653089 -0.00041782 -0.00452313  0.07911217 -0.07009571
                   Z  0.05456359 -0.00121952 -0.01603641 -0.01825438  0.02197753
  2   C            X  0.12005207  0.00041236  0.00140732  0.02581376 -0.08126398
                   Y -0.00579762  0.00509013  0.01014612 -0.08314352 -0.01441761
                   Z  0.04849672  0.01732522  0.03714729  0.02273847  0.00968641
  3   O            X  0.10842542  0.00070807 -0.00261338  0.11452663 -0.00711270
                   Y -0.02337984  0.00954365 -0.02088909  0.04278369  0.11486013
                   Z  0.05397735  0.03619701 -0.07783418 -0.01584139 -0.03169191
  4   N            X  0.13944387 -0.00123530  0.00037778 -0.05683436  0.13793987
                   Y -0.00858605 -0.01282028  0.00335782 -0.08108185 -0.02295024
                   Z  0.03904317 -0.04850257  0.01212670  0.02357610  0.00083860
  5   H            X  0.11879263  0.01633025 -0.00088403  0.09679060 -0.13290541
                   Y  0.02849120  0.13950246 -0.00976836  0.29853969 -0.11959120
                   Z  0.04923265  0.50853340 -0.03580200 -0.08304469  0.03389044
  6   H            X  0.10221031  0.21976174 -0.06496313 -0.26047843 -0.05617023
                   Y  0.02522026 -0.49202781 -0.03847152  0.10043933 -0.07716229
                   Z  0.05758393 -0.17705937 -0.02783351 -0.01716934  0.01968664
  7   H            X  0.09460556 -0.23572715  0.06197284 -0.26190134 -0.04790679
                   Y  0.01246728  0.33335371  0.01771662  0.10283119 -0.07332307
                   Z  0.06137799 -0.39119109 -0.04790893 -0.02358645  0.02167825
  8   H            X  0.09356185  0.00054253  0.02734182  0.25202901  0.18975676
                   Y -0.01829959  0.01443504  0.23819242  0.01278957  0.07482890
                   Z  0.06110452  0.05401461  0.89030144 -0.01208509 -0.02900537
  9   H            X  0.14519025 -0.00231368  0.00103637 -0.08225947  0.25796999
                   Y -0.02485383 -0.02387767  0.01035211 -0.01901698 -0.30251525
                   Z  0.03607553 -0.08716255  0.03653109  0.00633045  0.06806249

 TRANS. SAYVETZ    X  6.98377054  0.00006912  0.00008161  0.00006202  0.00001329
                   Y -0.34218477  0.00035616  0.00010394  0.00001082 -0.00001417
                   Z  2.91426197 -0.00054024 -0.00014153 -0.00000354  0.00000777
               TOTAL  7.57516101  0.00065076  0.00019363  0.00006306  0.00002093

   ROT. SAYVETZ    X -0.79757129 -0.02124964 -0.03444779 -0.00347785  0.00207643
                   Y -0.31047964  0.08856537  0.02661345  0.00465603 -0.00192429
                   Z -2.94810935 -0.04819431 -0.00201175 -0.01332494 -0.00015696
               TOTAL  3.06983164  0.10304399  0.04357722  0.01453713  0.00283533

                           11          12          13          14          15
       FREQUENCY:       536.42      821.03      935.71     1019.02     1113.23  
        SYMMETRY:         A           A           A           A           A   
    REDUCED MASS:      2.25876     4.69758     1.31224     1.93443     1.47425
    IR INTENSITY:      0.36822     0.93567     2.23426     0.31460     0.00257

  1   C            X  0.00132700  0.14660789 -0.00010870 -0.00274357  0.00799849
                   Y -0.00157327  0.07535499 -0.00178949 -0.11647182  0.03169770
                   Z -0.00749078 -0.02558489 -0.00558562  0.03235235  0.12537033
  2   C            X  0.00803735 -0.02178972  0.00307727  0.12098279 -0.00836314
                   Y  0.05579281 -0.06821232  0.02298694 -0.00558974 -0.02764019
                   Z  0.20279173  0.01944804  0.08494033 -0.00342970 -0.10490874
  3   O            X -0.00170235 -0.11720056 -0.00120515 -0.08161159  0.00296565
                   Y -0.01326850  0.07154548 -0.00704197  0.04998025  0.00025515
                   Z -0.04163645 -0.01548211 -0.02702838 -0.01060405  0.00830394
  4   N            X -0.00348272 -0.01040886 -0.00313355  0.03557546 -0.00234294
                   Y -0.01324583 -0.09694203 -0.02681138  0.01023735  0.00289776
                   Z -0.05195314  0.02683073 -0.09815538 -0.00377761 -0.00534521
  5   H            X -0.00434336  0.20356912  0.00253250  0.29505992  0.00709049
                   Y -0.05587266  0.13600563  0.01663403  0.23862390 -0.05762495
                   Z -0.20827667 -0.04438176  0.05865836 -0.07569008 -0.25323438
  6   H            X -0.27296611  0.10008595  0.04938336 -0.31937312 -0.39530237
                   Y -0.13468656  0.07897423  0.04090511 -0.01683808 -0.33193803
                   Z -0.07026658 -0.02527695  0.01499075  0.05579133 -0.03896673
  7   H            X  0.26623971  0.10062466 -0.04843370 -0.32346930  0.36517495
                   Y  0.07585306  0.07918851 -0.02682155 -0.03749994  0.26152389
                   Z -0.14659959 -0.02504241  0.03694609 -0.02018714 -0.23435731
  8   H            X -0.01100614  0.07705747 -0.00383029 -0.18114975 -0.00611582
                   Y -0.05424994  0.03851523 -0.02176244  0.07740235 -0.00317071
                   Z -0.19833937 -0.01295470 -0.08292713 -0.01535239 -0.01003916
  9   H            X -0.01402526  0.03715711  0.02766867 -0.07799207  0.01898367
                   Y -0.08202480 -0.20627803  0.22294013  0.25622366  0.03859216
                   Z -0.31936658  0.05364750  0.82024289 -0.06815960  0.23543770

 TRANS. SAYVETZ    X -0.00000906  0.00000118  0.00000153 -0.00000725  0.00000253
                   Y -0.00002109 -0.00001586  0.00000186  0.00000976  0.00000626
                   Z -0.00008991  0.00000444  0.00000906 -0.00000224 -0.00000608
               TOTAL  0.00009279  0.00001651  0.00000937  0.00001236  0.00000909

   ROT. SAYVETZ    X -0.00741346 -0.00037012  0.00216071 -0.00032432 -0.00245509
                   Y  0.00283801  0.00029248 -0.00088936  0.00122546  0.00044807
                   Z  0.00851328 -0.00087957 -0.00071908 -0.00373384  0.00229552
               TOTAL  0.01164000  0.00099808  0.00244473  0.00394315  0.00339082

                           16          17          18          19          20
       FREQUENCY:      1117.32     1232.02     1327.10     1450.53     1538.64  
        SYMMETRY:         A           A           A           A           A   
    REDUCED MASS:      1.59576     1.24340     2.33663     1.21497     1.05528
    IR INTENSITY:      1.23627     2.67793     5.97512     0.42810     0.05071

  1   C            X -0.07376651  0.01740558 -0.05280748 -0.10723252  0.02071973
                   Y  0.05569997 -0.02335494  0.02225319 -0.05878809 -0.04453246
                   Z -0.00629753  0.00541543 -0.00411879  0.01991272  0.01249220
  2   C            X  0.08871944 -0.01710241  0.18304610  0.01051140  0.02700205
                   Y -0.01822363 -0.00905188 -0.03825919 -0.00113615  0.01446278
                   Z -0.00324248  0.00353703  0.00405941  0.00002712 -0.00433104
  3   O            X -0.05436982 -0.05375750 -0.04399828 -0.00154088 -0.00548732
                   Y  0.03358876 -0.04675757  0.01077345  0.00122201 -0.00060535
                   Z -0.00696949  0.01424842 -0.00146588 -0.00029674  0.00029642
  4   N            X  0.04595465  0.00080434 -0.07500715 -0.00443971 -0.00936637
                   Y -0.08269441  0.08310250  0.05670049  0.00383999 -0.01811844
                   Z  0.02065670 -0.02268484 -0.01287121 -0.00089334  0.00521713
  5   H            X -0.30425986  0.10555863 -0.17230562  0.30369957 -0.21653686
                   Y -0.23161797  0.08326903 -0.12483176  0.40287559 -0.29522663
                   Z  0.06066623 -0.02483610  0.03941545 -0.12282424  0.07743741
  6   H            X  0.18436326 -0.05214392  0.04259997  0.47138458 -0.07828071
                   Y -0.07397933  0.00255445 -0.09288333  0.18250587  0.58207736
                   Z -0.04036698  0.00917145 -0.03477013  0.11137942  0.22309762
  7   H            X  0.22620897 -0.05424344  0.04753904  0.45993410 -0.11712722
                   Y -0.01982160 -0.00329117 -0.06127561  0.09130652  0.38942576
                   Z  0.03830864 -0.00454470  0.07398333 -0.21841719 -0.48810287
  8   H            X  0.17561328  0.84197066  0.05020279 -0.01692038  0.05278438
                   Y -0.00713980 -0.21151670  0.00172868  0.00454618 -0.01076411
                   Z -0.00447032  0.03031481 -0.00205663 -0.00068177  0.00123676
  9   H            X -0.23560990 -0.00275994  0.22168669  0.01969919  0.00816683
                   Y  0.50222699  0.10226707 -0.49096144 -0.04047442 -0.04612206
                   Z -0.11694142 -0.02764067  0.12624492  0.01024248  0.01196514

 TRANS. SAYVETZ    X -0.00002079 -0.00000277 -0.00000806  0.00001372 -0.00000583
                   Y -0.00001445 -0.00000134 -0.00000538  0.00000038  0.00000463
                   Z  0.00000545  0.00000190  0.00000831 -0.00000293  0.00000050
               TOTAL  0.00002589  0.00000362  0.00001277  0.00001403  0.00000746

   ROT. SAYVETZ    X -0.00070721 -0.00019558  0.00044285  0.00011975  0.00079806
                   Y -0.00012701  0.00031066 -0.00044047 -0.00030252  0.00015083
                   Z  0.00535465  0.00153903  0.00102775 -0.00040098  0.00107291
               TOTAL  0.00540265  0.00158221  0.00120267  0.00051637  0.00134565

                           21          22          23          24          25
       FREQUENCY:      1557.01     1775.58     3047.21     3094.51     3178.50  
        SYMMETRY:         A           A           A           A           A   
    REDUCED MASS:      1.04288     5.58066     1.03899     1.09849     1.09462
    IR INTENSITY:      0.30517     2.30154     0.23176     0.34781     0.05945

  1   C            X -0.00146090 -0.00961176  0.02347663 -0.00255982 -0.05619664
                   Y -0.01460103 -0.01822324  0.04497668 -0.02260817  0.06178015
                   Z -0.04931729  0.00531500 -0.01225273 -0.08360699 -0.01514008
  2   C            X -0.00006135  0.03427163 -0.00110578 -0.00002143 -0.00091437
                   Y -0.00494254  0.21878070  0.00152965 -0.00022546  0.00247473
                   Z -0.01933133 -0.06058940 -0.00037290 -0.00089442 -0.00064980
  3   O            X  0.00002298 -0.00829635  0.00024799  0.00000822  0.00056365
                   Y  0.00079161 -0.02179346 -0.00037492  0.00006936 -0.00061929
                   Z  0.00285787  0.00614237  0.00008979  0.00025088  0.00014633
  4   N            X -0.00017726 -0.02188846  0.00049463 -0.00000167  0.00087141
                   Y -0.00028473 -0.12540201 -0.00056918 -0.00005537  0.00003120
                   Z  0.00037119  0.03478780  0.00014475 -0.00018558 -0.00003658
  5   H            X  0.01932806  0.05877163 -0.21290357 -0.00230239  0.70535866
                   Y  0.18335820  0.07085704  0.18613494 -0.00540062 -0.56868426
                   Z  0.67859349 -0.02165079 -0.04426775 -0.02510689  0.13401356
  6   H            X -0.45104620 -0.04835493 -0.01308180 -0.01699994 -0.01536977
                   Y  0.17478286 -0.07025103 -0.21139424 -0.24758559 -0.04950343
                   Z  0.02822747 -0.02067551  0.61960164  0.63238433  0.17514270
  7   H            X  0.45205130 -0.04636189 -0.04853995  0.05021087 -0.02511289
                   Y -0.13020207 -0.04879634 -0.51226014  0.52580697 -0.13373505
                   Z  0.07021593  0.05685565 -0.42920998  0.40206695 -0.12419137
  8   H            X -0.00055086  0.18696789  0.00356981 -0.00017488  0.00330884
                   Y -0.00431968 -0.04310639 -0.00007137 -0.00099030  0.00293657
                   Z -0.01632674  0.00578956 -0.00006481 -0.00367589 -0.00091490
  9   H            X  0.00044084 -0.00884062 -0.00621706 -0.00010660 -0.00922586
                   Y  0.00047622 -0.20844347 -0.00229330 -0.00028588 -0.00669152
                   Z  0.00616593  0.05698642  0.00083227 -0.00092835  0.00214272

 TRANS. SAYVETZ    X -0.00000015  0.00000807  0.00000158 -0.00000011  0.00000126
                   Y  0.00000089  0.00000648  0.00000012 -0.00000014 -0.00000077
                   Z  0.00000259  0.00000016 -0.00000379 -0.00000058 -0.00000073
               TOTAL  0.00000274  0.00001035  0.00000411  0.00000061  0.00000164

   ROT. SAYVETZ    X  0.00209591 -0.00010267  0.00002632 -0.00041752  0.00006872
                   Y  0.00313576 -0.00015673 -0.00000267 -0.00006167  0.00008273
                   Z -0.00020458 -0.00039787 -0.00013933  0.00007040  0.00013530
               TOTAL  0.00377726  0.00043978  0.00014181  0.00042789  0.00017284

                           26          27
       FREQUENCY:      3331.40     3496.97  
        SYMMETRY:         A           A   
    REDUCED MASS:      1.07370     1.06593
    IR INTENSITY:      0.05557     0.11668

  1   C            X  0.00035562  0.00000398
                   Y  0.00081061  0.00051588
                   Z -0.00024334 -0.00014228
  2   C            X -0.00604246 -0.00352084
                   Y  0.00628381 -0.00292886
                   Z -0.00149600  0.00090634
  3   O            X  0.00041282 -0.00861704
                   Y  0.00122153 -0.05745650
                   Z -0.00034249  0.01564041
  4   N            X -0.05849007 -0.00062312
                   Y -0.03331612  0.00060359
                   Z  0.01101945 -0.00014121
  5   H            X  0.00996534 -0.00461504
                   Y -0.00287798  0.00050744
                   Z  0.00047116  0.00002566
  6   H            X -0.00142162  0.00136247
                   Y -0.00387362  0.00168881
                   Z  0.00537870 -0.00106176
  7   H            X -0.00168638  0.00137888
                   Y -0.00610230  0.00202698
                   Z -0.00250239 -0.00002702
  8   H            X -0.00277195  0.17323725
                   Y -0.01720457  0.91716408
                   Z  0.00469631 -0.25077934
  9   H            X  0.86974971  0.01592353
                   Y  0.38911033  0.01083563
                   Z -0.13500191 -0.00351411

 TRANS. SAYVETZ    X -0.00000681 -0.00000405
                   Y  0.00000470  0.00000237
                   Z  0.00000434  0.00000353
               TOTAL  0.00000934  0.00000587

   ROT. SAYVETZ    X -0.00007968  0.00007229
                   Y  0.00011605 -0.00000069
                   Z -0.00001676 -0.00010854
               TOTAL  0.00014177  0.00013041

 REFERENCE ON SAYVETZ CONDITIONS - A. SAYVETZ, J.CHEM.PHYS., 7, 383-389(1939).

 NOTE - THE MODES J,K ARE ORTHONORMALIZED ACCORDING TO
 SUM ON I   M(I) * (X(I,J)*X(I,K) + Y(I,J)*Y(I,K) + Z(I,J)*Z(I,K)) = DELTA(J,K)

  MODE FREQ(CM**-1)  SYMMETRY  RED. MASS  IR INTENS.
     1      11.334    A        4.224908    0.013370
     2       7.340    A        3.435310    0.152461
     3       2.024    A        3.778300    0.088136
     4       0.011    A        6.560133    0.000000
     5       0.104    A        6.518065    0.000031
     6       0.344    A        6.736716    0.002553
     7     193.809    A        1.069130    0.012804
     8     338.735    A        1.143788    3.371016
     9     407.675    A        2.612284    0.055552
    10     523.098    A        3.228602    0.664177
    11     536.421    A        2.258760    0.368224
    12     821.034    A        4.697579    0.935669
    13     935.706    A        1.312243    2.234258
    14    1019.018    A        1.934428    0.314595
    15    1113.234    A        1.474252    0.002565
    16    1117.319    A        1.595757    1.236271
    17    1232.018    A        1.243402    2.677935
    18    1327.103    A        2.336634    5.975118
    19    1450.528    A        1.214966    0.428096
    20    1538.637    A        1.055282    0.050705
    21    1557.007    A        1.042880    0.305171
    22    1775.577    A        5.580659    2.301538
    23    3047.209    A        1.038991    0.231760
    24    3094.513    A        1.098492    0.347808
    25    3178.505    A        1.094618    0.059449
    26    3331.397    A        1.073703    0.055570
    27    3496.971    A        1.065926    0.116683

     -------------------------------
     THERMOCHEMISTRY AT T=  298.15 K
     -------------------------------

 USING IDEAL GAS, RIGID ROTOR, HARMONIC NORMAL MODE APPROXIMATIONS.
 P=  1.01325E+05 PASCAL.
 ALL FREQUENCIES ARE SCALED BY   1.00000
 THE MOMENTS OF INERTIA ARE (IN AMU*BOHR**2)
            173.84187           196.62053           359.08733
 THE ROTATIONAL SYMMETRY NUMBER IS  1.0
 THE ROTATIONAL CONSTANTS ARE (IN GHZ)
     10.37200     9.17040     5.02131
      7 -     27 VIBRATIONAL MODES ARE USED IN THERMOCHEMISTRY.
 THE HARMONIC ZERO POINT ENERGY IS (SCALED BY   1.000)
        0.072982 HARTREE/MOLECULE    16017.757320 CM**-1/MOLECULE 
       45.797112 KCAL/MOL              191.615118 KJ/MOL

               Q               LN Q
 ELEC.     1.00000E+00       0.000000
 TRANS.    1.78296E+07      16.696370
 ROT.      3.96582E+04      10.588053
 VIB.      2.94713E+00       1.080833
 TOT.      2.08389E+12      28.365256

              E         H         G         CV        CP        S
           KJ/MOL    KJ/MOL    KJ/MOL   J/MOL-K   J/MOL-K   J/MOL-K
 ELEC.      0.000     0.000     0.000     0.000     0.000     0.000
 TRANS.     3.718     6.197   -41.389    12.472    20.786   159.606
 ROT.       3.718     3.718   -26.247    12.472    12.472   100.505
 VIB.     196.587   196.587   188.936    40.975    40.975    25.663
 TOTAL    204.024   206.503   121.299    65.918    74.233   285.774
 VIB. THERMAL CORRECTION E(T)-E(0) = H(T)-H(0) =      4972.013 J/MOL

              E         H         G         CV        CP        S
         KCAL/MOL  KCAL/MOL  KCAL/MOL CAL/MOL-K CAL/MOL-K CAL/MOL-K
 ELEC.      0.000     0.000     0.000     0.000     0.000     0.000
 TRANS.     0.889     1.481    -9.892     2.981     4.968    38.147
 ROT.       0.889     0.889    -6.273     2.981     2.981    24.021
 VIB.      46.985    46.985    45.157     9.793     9.793     6.134
 TOTAL     48.763    49.355    28.991    15.755    17.742    68.302
 VIB. THERMAL CORRECTION E(T)-E(0) = H(T)-H(0) =      1188.340 CAL/MOL
 ......END OF NORMAL COORDINATE ANALYSIS......
 STEP CPU TIME =     0.00 TOTAL CPU TIME =        585.3 (      9.8 MIN)
 TOTAL WALL CLOCK TIME=        614.4 SECONDS, CPU UTILIZATION IS    95.27%
                662120  WORDS OF DYNAMIC MEMORY USED
 EXECUTION OF GAMESS TERMINATED NORMALLY Fri Oct  7 21:36:01 2022
 DDI: 263640 bytes (0.3 MB / 0 MWords) used by master data server.

 ----------------------------------------
 CPU timing information for all processes
 ========================================
 0: 581.03 + 4.302 = 585.306
 ----------------------------------------
 ddikick.x: exited gracefully.
----- accounting info -----
Files used on the master node chemcompute-node-1.novalocal were:
-rw-r--r--. 1 chemcomp chemcomp     1001 Oct  7 21:25 /scratch/121640/461750.F05
-rw-rw-r--. 1 chemcomp chemcomp 70451200 Oct  7 21:36 /scratch/121640/461750.F10
-rw-rw-r--. 1 chemcomp chemcomp  4613504 Oct  7 21:35 /scratch/121640/461750.F22
Fri Oct  7 21:36:04 UTC 2022
0.102u 0.034s 10:17.75 0.0%	0+0k 8+208io 0pf+0w
Finishing Up...
Looking for IR data...
Looking for Raman data...
vibramans not found
Looking for thermodynamics data...
Looking for UV-Vis data...
chemcompute.org
{'UTCtimestamp': '2022-10-07T21:36:05.964648', 'cluster': 'jetstream2', 'clusterJobNumber': '121640', 'status': 'COMPLETE', 'nodeList': 'chemcompute-node-1'}
121640
